
     Program PWSCF v.7.1 starts on 20May2023 at 15:46: 3 

     This program is part of the open-source Quantum ESPRESSO suite
     for quantum simulation of materials; please cite
         "P. Giannozzi et al., J. Phys.:Condens. Matter 21 395502 (2009);
         "P. Giannozzi et al., J. Phys.:Condens. Matter 29 465901 (2017);
         "P. Giannozzi et al., J. Chem. Phys. 152 154105 (2020);
          URL http://www.quantum-espresso.org", 
     in publications or presentations arising from this work. More details at
     http://www.quantum-espresso.org/quote

     Parallel version (MPI & OpenMP), running on      50 processor cores
     Number of MPI processes:                50
     Threads/MPI process:                     1

     MPI processes distributed on     1 nodes
     49032 MiB available memory on the printing compute node when the environment starts
 
     Reading input from Co.nscf.in

     Current dimensions of program PWSCF are:
     Max number of different atomic species (ntypx) = 10
     Max number of k-points (npk) =  40000
     Max angular momentum in pseudopotentials (lmaxx) =  4

     Atomic positions and unit cell read from directory:
     ./Co.save/
     Atomic positions from file used, from input discarded
 
Error reading attribute index: expected integer, found *

     Fixed quantization axis for GGA:     0.000000    0.000000    1.000000
 
     K-points division:     npool     =      50
     Subspace diagonalization in iterative solution of the eigenvalue problem:
     a serial algorithm will be used

 
     G-vector sticks info
     --------------------
     sticks:   dense  smooth     PW     G-vecs:    dense   smooth      PW
     Sum         559     559    223                17261    17261    4307
 
     Using Slab Decomposition
 


     bravais-lattice index     =            4
     lattice parameter (alat)  =       4.7377  a.u.
     unit-cell volume          =     149.4877 (a.u.)^3
     number of atoms/cell      =            2
     number of atomic types    =            1
     number of electrons       =        34.00
     number of Kohn-Sham states=           96
     kinetic-energy cutoff     =      90.0000  Ry
     charge density cutoff     =     360.0000  Ry
     Exchange-correlation= PBE
                           (   1   4   3   4   0   0   0)
     Noncollinear calculation with spin-orbit


     celldm(1)=   4.737700  celldm(2)=   0.000000  celldm(3)=   1.623200
     celldm(4)=   0.000000  celldm(5)=   0.000000  celldm(6)=   0.000000

     crystal axes: (cart. coord. in units of alat)
               a(1) = (   1.000000   0.000000   0.000000 )  
               a(2) = (  -0.500000   0.866025   0.000000 )  
               a(3) = (   0.000000   0.000000   1.623200 )  

     reciprocal axes: (cart. coord. in units 2 pi/alat)
               b(1) = (  1.000000  0.577350 -0.000000 )  
               b(2) = (  0.000000  1.154701  0.000000 )  
               b(3) = (  0.000000 -0.000000  0.616067 )  


     PseudoPot. # 1 for Co read from file:
     ./Co_ONCV_PBE_FR-1.0.upf
     MD5 check sum: 5200631a6ab1dc1b53d71ef650dcc2c4
     Pseudo is Norm-conserving, Zval = 17.0
     Generated using ONCVPSP code by D. R. Hamann
     Using radial grid of  602 points, 10 beta functions with: 
                l(1) =   0
                l(2) =   0
                l(3) =   1
                l(4) =   1
                l(5) =   1
                l(6) =   1
                l(7) =   2
                l(8) =   2
                l(9) =   2
               l(10) =   2

     atomic species   valence    mass     pseudopotential
        Co            17.00    58.93300     Co( 1.00)

     No symmetry found


                                    s                        frac. trans.

      isym =  1     identity                                     

 Time Reversal             0
 cryst.   s( 1) = (     1          0          0      )
                  (     0          1          0      )
                  (     0          0          1      )

 cart.    s( 1) = (  1.0000000  0.0000000  0.0000000 )
                  (  0.0000000  1.0000000  0.0000000 )
                  (  0.0000000  0.0000000  1.0000000 )


     the magnetic double point group is C_1 (1)     [C_1 (1)    ]
     using the double point group C_1 (1)    
     there are  2 classes and  1 irreducible representations
     the character table:

       E     -E   
                  
G_2    1.00 -1.00

     the symmetry operations in each class and the name of the first element:

     E             1
          identity                                               
     -E           -1
          identity E                                             

   Cartesian axes

     site n.     atom                  positions (alat units)
         1           Co  tau(   1) = (  -0.0000000   0.5773503   0.4058000  )
         2           Co  tau(   2) = (   0.5000000   0.2886751   1.2174000  )

   Crystallographic axes

     site n.     atom                  positions (cryst. coord.)
         1           Co  tau(   1) = (  0.3333333  0.6666667  0.2500000  )
         2           Co  tau(   2) = (  0.6666667  0.3333333  0.7500000  )

     number of k points=  1000  Marzari-Vanderbilt smearing, width (Ry)=  0.0200
                       cart. coord. in units 2pi/alat
        k(    1) = (   0.0000000   0.0000000   0.0000000), wk =   0.0010000
        k(    2) = (   0.0000000   0.0000000   0.0616067), wk =   0.0010000
        k(    3) = (   0.0000000   0.0000000   0.1232134), wk =   0.0010000
        k(    4) = (   0.0000000   0.0000000   0.1848201), wk =   0.0010000
        k(    5) = (   0.0000000   0.0000000   0.2464268), wk =   0.0010000
        k(    6) = (   0.0000000   0.0000000   0.3080335), wk =   0.0010000
        k(    7) = (   0.0000000   0.0000000   0.3696402), wk =   0.0010000
        k(    8) = (   0.0000000   0.0000000   0.4312469), wk =   0.0010000
        k(    9) = (   0.0000000   0.0000000   0.4928536), wk =   0.0010000
        k(   10) = (   0.0000000   0.0000000   0.5544603), wk =   0.0010000
        k(   11) = (   0.0000000   0.1154701   0.0000000), wk =   0.0010000
        k(   12) = (   0.0000000   0.1154701   0.0616067), wk =   0.0010000
        k(   13) = (   0.0000000   0.1154701   0.1232134), wk =   0.0010000
        k(   14) = (   0.0000000   0.1154701   0.1848201), wk =   0.0010000
        k(   15) = (   0.0000000   0.1154701   0.2464268), wk =   0.0010000
        k(   16) = (   0.0000000   0.1154701   0.3080335), wk =   0.0010000
        k(   17) = (   0.0000000   0.1154701   0.3696402), wk =   0.0010000
        k(   18) = (   0.0000000   0.1154701   0.4312469), wk =   0.0010000
        k(   19) = (   0.0000000   0.1154701   0.4928536), wk =   0.0010000
        k(   20) = (   0.0000000   0.1154701   0.5544603), wk =   0.0010000
        k(   21) = (   0.0000000   0.2309401   0.0000000), wk =   0.0010000
        k(   22) = (   0.0000000   0.2309401   0.0616067), wk =   0.0010000
        k(   23) = (   0.0000000   0.2309401   0.1232134), wk =   0.0010000
        k(   24) = (   0.0000000   0.2309401   0.1848201), wk =   0.0010000
        k(   25) = (   0.0000000   0.2309401   0.2464268), wk =   0.0010000
        k(   26) = (   0.0000000   0.2309401   0.3080335), wk =   0.0010000
        k(   27) = (   0.0000000   0.2309401   0.3696402), wk =   0.0010000
        k(   28) = (   0.0000000   0.2309401   0.4312469), wk =   0.0010000
        k(   29) = (   0.0000000   0.2309401   0.4928536), wk =   0.0010000
        k(   30) = (   0.0000000   0.2309401   0.5544603), wk =   0.0010000
        k(   31) = (   0.0000000   0.3464102   0.0000000), wk =   0.0010000
        k(   32) = (   0.0000000   0.3464102   0.0616067), wk =   0.0010000
        k(   33) = (   0.0000000   0.3464102   0.1232134), wk =   0.0010000
        k(   34) = (   0.0000000   0.3464102   0.1848201), wk =   0.0010000
        k(   35) = (   0.0000000   0.3464102   0.2464268), wk =   0.0010000
        k(   36) = (   0.0000000   0.3464102   0.3080335), wk =   0.0010000
        k(   37) = (   0.0000000   0.3464102   0.3696402), wk =   0.0010000
        k(   38) = (   0.0000000   0.3464102   0.4312469), wk =   0.0010000
        k(   39) = (   0.0000000   0.3464102   0.4928536), wk =   0.0010000
        k(   40) = (   0.0000000   0.3464102   0.5544603), wk =   0.0010000
        k(   41) = (   0.0000000   0.4618802   0.0000000), wk =   0.0010000
        k(   42) = (   0.0000000   0.4618802   0.0616067), wk =   0.0010000
        k(   43) = (   0.0000000   0.4618802   0.1232134), wk =   0.0010000
        k(   44) = (   0.0000000   0.4618802   0.1848201), wk =   0.0010000
        k(   45) = (   0.0000000   0.4618802   0.2464268), wk =   0.0010000
        k(   46) = (   0.0000000   0.4618802   0.3080335), wk =   0.0010000
        k(   47) = (   0.0000000   0.4618802   0.3696402), wk =   0.0010000
        k(   48) = (   0.0000000   0.4618802   0.4312469), wk =   0.0010000
        k(   49) = (   0.0000000   0.4618802   0.4928536), wk =   0.0010000
        k(   50) = (   0.0000000   0.4618802   0.5544603), wk =   0.0010000
        k(   51) = (   0.0000000   0.5773503   0.0000000), wk =   0.0010000
        k(   52) = (   0.0000000   0.5773503   0.0616067), wk =   0.0010000
        k(   53) = (   0.0000000   0.5773503   0.1232134), wk =   0.0010000
        k(   54) = (   0.0000000   0.5773503   0.1848201), wk =   0.0010000
        k(   55) = (   0.0000000   0.5773503   0.2464268), wk =   0.0010000
        k(   56) = (   0.0000000   0.5773503   0.3080335), wk =   0.0010000
        k(   57) = (   0.0000000   0.5773503   0.3696402), wk =   0.0010000
        k(   58) = (   0.0000000   0.5773503   0.4312469), wk =   0.0010000
        k(   59) = (   0.0000000   0.5773503   0.4928536), wk =   0.0010000
        k(   60) = (   0.0000000   0.5773503   0.5544603), wk =   0.0010000
        k(   61) = (   0.0000000   0.6928203   0.0000000), wk =   0.0010000
        k(   62) = (   0.0000000   0.6928203   0.0616067), wk =   0.0010000
        k(   63) = (   0.0000000   0.6928203   0.1232134), wk =   0.0010000
        k(   64) = (   0.0000000   0.6928203   0.1848201), wk =   0.0010000
        k(   65) = (   0.0000000   0.6928203   0.2464268), wk =   0.0010000
        k(   66) = (   0.0000000   0.6928203   0.3080335), wk =   0.0010000
        k(   67) = (   0.0000000   0.6928203   0.3696402), wk =   0.0010000
        k(   68) = (   0.0000000   0.6928203   0.4312469), wk =   0.0010000
        k(   69) = (   0.0000000   0.6928203   0.4928536), wk =   0.0010000
        k(   70) = (   0.0000000   0.6928203   0.5544603), wk =   0.0010000
        k(   71) = (   0.0000000   0.8082904   0.0000000), wk =   0.0010000
        k(   72) = (   0.0000000   0.8082904   0.0616067), wk =   0.0010000
        k(   73) = (   0.0000000   0.8082904   0.1232134), wk =   0.0010000
        k(   74) = (   0.0000000   0.8082904   0.1848201), wk =   0.0010000
        k(   75) = (   0.0000000   0.8082904   0.2464268), wk =   0.0010000
        k(   76) = (   0.0000000   0.8082904   0.3080335), wk =   0.0010000
        k(   77) = (   0.0000000   0.8082904   0.3696402), wk =   0.0010000
        k(   78) = (   0.0000000   0.8082904   0.4312469), wk =   0.0010000
        k(   79) = (   0.0000000   0.8082904   0.4928536), wk =   0.0010000
        k(   80) = (   0.0000000   0.8082904   0.5544603), wk =   0.0010000
        k(   81) = (   0.0000000   0.9237604   0.0000000), wk =   0.0010000
        k(   82) = (   0.0000000   0.9237604   0.0616067), wk =   0.0010000
        k(   83) = (   0.0000000   0.9237604   0.1232134), wk =   0.0010000
        k(   84) = (   0.0000000   0.9237604   0.1848201), wk =   0.0010000
        k(   85) = (   0.0000000   0.9237604   0.2464268), wk =   0.0010000
        k(   86) = (   0.0000000   0.9237604   0.3080335), wk =   0.0010000
        k(   87) = (   0.0000000   0.9237604   0.3696402), wk =   0.0010000
        k(   88) = (   0.0000000   0.9237604   0.4312469), wk =   0.0010000
        k(   89) = (   0.0000000   0.9237604   0.4928536), wk =   0.0010000
        k(   90) = (   0.0000000   0.9237604   0.5544603), wk =   0.0010000
        k(   91) = (   0.0000000   1.0392305   0.0000000), wk =   0.0010000
        k(   92) = (   0.0000000   1.0392305   0.0616067), wk =   0.0010000
        k(   93) = (   0.0000000   1.0392305   0.1232134), wk =   0.0010000
        k(   94) = (   0.0000000   1.0392305   0.1848201), wk =   0.0010000
        k(   95) = (   0.0000000   1.0392305   0.2464268), wk =   0.0010000
        k(   96) = (   0.0000000   1.0392305   0.3080335), wk =   0.0010000
        k(   97) = (   0.0000000   1.0392305   0.3696402), wk =   0.0010000
        k(   98) = (   0.0000000   1.0392305   0.4312469), wk =   0.0010000
        k(   99) = (   0.0000000   1.0392305   0.4928536), wk =   0.0010000
        k(  100) = (   0.0000000   1.0392305   0.5544603), wk =   0.0010000
        k(  101) = (   0.1000000   0.0577350   0.0000000), wk =   0.0010000
        k(  102) = (   0.1000000   0.0577350   0.0616067), wk =   0.0010000
        k(  103) = (   0.1000000   0.0577350   0.1232134), wk =   0.0010000
        k(  104) = (   0.1000000   0.0577350   0.1848201), wk =   0.0010000
        k(  105) = (   0.1000000   0.0577350   0.2464268), wk =   0.0010000
        k(  106) = (   0.1000000   0.0577350   0.3080335), wk =   0.0010000
        k(  107) = (   0.1000000   0.0577350   0.3696402), wk =   0.0010000
        k(  108) = (   0.1000000   0.0577350   0.4312469), wk =   0.0010000
        k(  109) = (   0.1000000   0.0577350   0.4928536), wk =   0.0010000
        k(  110) = (   0.1000000   0.0577350   0.5544603), wk =   0.0010000
        k(  111) = (   0.1000000   0.1732051   0.0000000), wk =   0.0010000
        k(  112) = (   0.1000000   0.1732051   0.0616067), wk =   0.0010000
        k(  113) = (   0.1000000   0.1732051   0.1232134), wk =   0.0010000
        k(  114) = (   0.1000000   0.1732051   0.1848201), wk =   0.0010000
        k(  115) = (   0.1000000   0.1732051   0.2464268), wk =   0.0010000
        k(  116) = (   0.1000000   0.1732051   0.3080335), wk =   0.0010000
        k(  117) = (   0.1000000   0.1732051   0.3696402), wk =   0.0010000
        k(  118) = (   0.1000000   0.1732051   0.4312469), wk =   0.0010000
        k(  119) = (   0.1000000   0.1732051   0.4928536), wk =   0.0010000
        k(  120) = (   0.1000000   0.1732051   0.5544603), wk =   0.0010000
        k(  121) = (   0.1000000   0.2886751   0.0000000), wk =   0.0010000
        k(  122) = (   0.1000000   0.2886751   0.0616067), wk =   0.0010000
        k(  123) = (   0.1000000   0.2886751   0.1232134), wk =   0.0010000
        k(  124) = (   0.1000000   0.2886751   0.1848201), wk =   0.0010000
        k(  125) = (   0.1000000   0.2886751   0.2464268), wk =   0.0010000
        k(  126) = (   0.1000000   0.2886751   0.3080335), wk =   0.0010000
        k(  127) = (   0.1000000   0.2886751   0.3696402), wk =   0.0010000
        k(  128) = (   0.1000000   0.2886751   0.4312469), wk =   0.0010000
        k(  129) = (   0.1000000   0.2886751   0.4928536), wk =   0.0010000
        k(  130) = (   0.1000000   0.2886751   0.5544603), wk =   0.0010000
        k(  131) = (   0.1000000   0.4041452   0.0000000), wk =   0.0010000
        k(  132) = (   0.1000000   0.4041452   0.0616067), wk =   0.0010000
        k(  133) = (   0.1000000   0.4041452   0.1232134), wk =   0.0010000
        k(  134) = (   0.1000000   0.4041452   0.1848201), wk =   0.0010000
        k(  135) = (   0.1000000   0.4041452   0.2464268), wk =   0.0010000
        k(  136) = (   0.1000000   0.4041452   0.3080335), wk =   0.0010000
        k(  137) = (   0.1000000   0.4041452   0.3696402), wk =   0.0010000
        k(  138) = (   0.1000000   0.4041452   0.4312469), wk =   0.0010000
        k(  139) = (   0.1000000   0.4041452   0.4928536), wk =   0.0010000
        k(  140) = (   0.1000000   0.4041452   0.5544603), wk =   0.0010000
        k(  141) = (   0.1000000   0.5196152   0.0000000), wk =   0.0010000
        k(  142) = (   0.1000000   0.5196152   0.0616067), wk =   0.0010000
        k(  143) = (   0.1000000   0.5196152   0.1232134), wk =   0.0010000
        k(  144) = (   0.1000000   0.5196152   0.1848201), wk =   0.0010000
        k(  145) = (   0.1000000   0.5196152   0.2464268), wk =   0.0010000
        k(  146) = (   0.1000000   0.5196152   0.3080335), wk =   0.0010000
        k(  147) = (   0.1000000   0.5196152   0.3696402), wk =   0.0010000
        k(  148) = (   0.1000000   0.5196152   0.4312469), wk =   0.0010000
        k(  149) = (   0.1000000   0.5196152   0.4928536), wk =   0.0010000
        k(  150) = (   0.1000000   0.5196152   0.5544603), wk =   0.0010000
        k(  151) = (   0.1000000   0.6350853   0.0000000), wk =   0.0010000
        k(  152) = (   0.1000000   0.6350853   0.0616067), wk =   0.0010000
        k(  153) = (   0.1000000   0.6350853   0.1232134), wk =   0.0010000
        k(  154) = (   0.1000000   0.6350853   0.1848201), wk =   0.0010000
        k(  155) = (   0.1000000   0.6350853   0.2464268), wk =   0.0010000
        k(  156) = (   0.1000000   0.6350853   0.3080335), wk =   0.0010000
        k(  157) = (   0.1000000   0.6350853   0.3696402), wk =   0.0010000
        k(  158) = (   0.1000000   0.6350853   0.4312469), wk =   0.0010000
        k(  159) = (   0.1000000   0.6350853   0.4928536), wk =   0.0010000
        k(  160) = (   0.1000000   0.6350853   0.5544603), wk =   0.0010000
        k(  161) = (   0.1000000   0.7505553   0.0000000), wk =   0.0010000
        k(  162) = (   0.1000000   0.7505553   0.0616067), wk =   0.0010000
        k(  163) = (   0.1000000   0.7505553   0.1232134), wk =   0.0010000
        k(  164) = (   0.1000000   0.7505553   0.1848201), wk =   0.0010000
        k(  165) = (   0.1000000   0.7505553   0.2464268), wk =   0.0010000
        k(  166) = (   0.1000000   0.7505553   0.3080335), wk =   0.0010000
        k(  167) = (   0.1000000   0.7505553   0.3696402), wk =   0.0010000
        k(  168) = (   0.1000000   0.7505553   0.4312469), wk =   0.0010000
        k(  169) = (   0.1000000   0.7505553   0.4928536), wk =   0.0010000
        k(  170) = (   0.1000000   0.7505553   0.5544603), wk =   0.0010000
        k(  171) = (   0.1000000   0.8660254   0.0000000), wk =   0.0010000
        k(  172) = (   0.1000000   0.8660254   0.0616067), wk =   0.0010000
        k(  173) = (   0.1000000   0.8660254   0.1232134), wk =   0.0010000
        k(  174) = (   0.1000000   0.8660254   0.1848201), wk =   0.0010000
        k(  175) = (   0.1000000   0.8660254   0.2464268), wk =   0.0010000
        k(  176) = (   0.1000000   0.8660254   0.3080335), wk =   0.0010000
        k(  177) = (   0.1000000   0.8660254   0.3696402), wk =   0.0010000
        k(  178) = (   0.1000000   0.8660254   0.4312469), wk =   0.0010000
        k(  179) = (   0.1000000   0.8660254   0.4928536), wk =   0.0010000
        k(  180) = (   0.1000000   0.8660254   0.5544603), wk =   0.0010000
        k(  181) = (   0.1000000   0.9814955   0.0000000), wk =   0.0010000
        k(  182) = (   0.1000000   0.9814955   0.0616067), wk =   0.0010000
        k(  183) = (   0.1000000   0.9814955   0.1232134), wk =   0.0010000
        k(  184) = (   0.1000000   0.9814955   0.1848201), wk =   0.0010000
        k(  185) = (   0.1000000   0.9814955   0.2464268), wk =   0.0010000
        k(  186) = (   0.1000000   0.9814955   0.3080335), wk =   0.0010000
        k(  187) = (   0.1000000   0.9814955   0.3696402), wk =   0.0010000
        k(  188) = (   0.1000000   0.9814955   0.4312469), wk =   0.0010000
        k(  189) = (   0.1000000   0.9814955   0.4928536), wk =   0.0010000
        k(  190) = (   0.1000000   0.9814955   0.5544603), wk =   0.0010000
        k(  191) = (   0.1000000   1.0969655   0.0000000), wk =   0.0010000
        k(  192) = (   0.1000000   1.0969655   0.0616067), wk =   0.0010000
        k(  193) = (   0.1000000   1.0969655   0.1232134), wk =   0.0010000
        k(  194) = (   0.1000000   1.0969655   0.1848201), wk =   0.0010000
        k(  195) = (   0.1000000   1.0969655   0.2464268), wk =   0.0010000
        k(  196) = (   0.1000000   1.0969655   0.3080335), wk =   0.0010000
        k(  197) = (   0.1000000   1.0969655   0.3696402), wk =   0.0010000
        k(  198) = (   0.1000000   1.0969655   0.4312469), wk =   0.0010000
        k(  199) = (   0.1000000   1.0969655   0.4928536), wk =   0.0010000
        k(  200) = (   0.1000000   1.0969655   0.5544603), wk =   0.0010000
        k(  201) = (   0.2000000   0.1154701   0.0000000), wk =   0.0010000
        k(  202) = (   0.2000000   0.1154701   0.0616067), wk =   0.0010000
        k(  203) = (   0.2000000   0.1154701   0.1232134), wk =   0.0010000
        k(  204) = (   0.2000000   0.1154701   0.1848201), wk =   0.0010000
        k(  205) = (   0.2000000   0.1154701   0.2464268), wk =   0.0010000
        k(  206) = (   0.2000000   0.1154701   0.3080335), wk =   0.0010000
        k(  207) = (   0.2000000   0.1154701   0.3696402), wk =   0.0010000
        k(  208) = (   0.2000000   0.1154701   0.4312469), wk =   0.0010000
        k(  209) = (   0.2000000   0.1154701   0.4928536), wk =   0.0010000
        k(  210) = (   0.2000000   0.1154701   0.5544603), wk =   0.0010000
        k(  211) = (   0.2000000   0.2309401   0.0000000), wk =   0.0010000
        k(  212) = (   0.2000000   0.2309401   0.0616067), wk =   0.0010000
        k(  213) = (   0.2000000   0.2309401   0.1232134), wk =   0.0010000
        k(  214) = (   0.2000000   0.2309401   0.1848201), wk =   0.0010000
        k(  215) = (   0.2000000   0.2309401   0.2464268), wk =   0.0010000
        k(  216) = (   0.2000000   0.2309401   0.3080335), wk =   0.0010000
        k(  217) = (   0.2000000   0.2309401   0.3696402), wk =   0.0010000
        k(  218) = (   0.2000000   0.2309401   0.4312469), wk =   0.0010000
        k(  219) = (   0.2000000   0.2309401   0.4928536), wk =   0.0010000
        k(  220) = (   0.2000000   0.2309401   0.5544603), wk =   0.0010000
        k(  221) = (   0.2000000   0.3464102   0.0000000), wk =   0.0010000
        k(  222) = (   0.2000000   0.3464102   0.0616067), wk =   0.0010000
        k(  223) = (   0.2000000   0.3464102   0.1232134), wk =   0.0010000
        k(  224) = (   0.2000000   0.3464102   0.1848201), wk =   0.0010000
        k(  225) = (   0.2000000   0.3464102   0.2464268), wk =   0.0010000
        k(  226) = (   0.2000000   0.3464102   0.3080335), wk =   0.0010000
        k(  227) = (   0.2000000   0.3464102   0.3696402), wk =   0.0010000
        k(  228) = (   0.2000000   0.3464102   0.4312469), wk =   0.0010000
        k(  229) = (   0.2000000   0.3464102   0.4928536), wk =   0.0010000
        k(  230) = (   0.2000000   0.3464102   0.5544603), wk =   0.0010000
        k(  231) = (   0.2000000   0.4618802   0.0000000), wk =   0.0010000
        k(  232) = (   0.2000000   0.4618802   0.0616067), wk =   0.0010000
        k(  233) = (   0.2000000   0.4618802   0.1232134), wk =   0.0010000
        k(  234) = (   0.2000000   0.4618802   0.1848201), wk =   0.0010000
        k(  235) = (   0.2000000   0.4618802   0.2464268), wk =   0.0010000
        k(  236) = (   0.2000000   0.4618802   0.3080335), wk =   0.0010000
        k(  237) = (   0.2000000   0.4618802   0.3696402), wk =   0.0010000
        k(  238) = (   0.2000000   0.4618802   0.4312469), wk =   0.0010000
        k(  239) = (   0.2000000   0.4618802   0.4928536), wk =   0.0010000
        k(  240) = (   0.2000000   0.4618802   0.5544603), wk =   0.0010000
        k(  241) = (   0.2000000   0.5773503   0.0000000), wk =   0.0010000
        k(  242) = (   0.2000000   0.5773503   0.0616067), wk =   0.0010000
        k(  243) = (   0.2000000   0.5773503   0.1232134), wk =   0.0010000
        k(  244) = (   0.2000000   0.5773503   0.1848201), wk =   0.0010000
        k(  245) = (   0.2000000   0.5773503   0.2464268), wk =   0.0010000
        k(  246) = (   0.2000000   0.5773503   0.3080335), wk =   0.0010000
        k(  247) = (   0.2000000   0.5773503   0.3696402), wk =   0.0010000
        k(  248) = (   0.2000000   0.5773503   0.4312469), wk =   0.0010000
        k(  249) = (   0.2000000   0.5773503   0.4928536), wk =   0.0010000
        k(  250) = (   0.2000000   0.5773503   0.5544603), wk =   0.0010000
        k(  251) = (   0.2000000   0.6928203   0.0000000), wk =   0.0010000
        k(  252) = (   0.2000000   0.6928203   0.0616067), wk =   0.0010000
        k(  253) = (   0.2000000   0.6928203   0.1232134), wk =   0.0010000
        k(  254) = (   0.2000000   0.6928203   0.1848201), wk =   0.0010000
        k(  255) = (   0.2000000   0.6928203   0.2464268), wk =   0.0010000
        k(  256) = (   0.2000000   0.6928203   0.3080335), wk =   0.0010000
        k(  257) = (   0.2000000   0.6928203   0.3696402), wk =   0.0010000
        k(  258) = (   0.2000000   0.6928203   0.4312469), wk =   0.0010000
        k(  259) = (   0.2000000   0.6928203   0.4928536), wk =   0.0010000
        k(  260) = (   0.2000000   0.6928203   0.5544603), wk =   0.0010000
        k(  261) = (   0.2000000   0.8082904   0.0000000), wk =   0.0010000
        k(  262) = (   0.2000000   0.8082904   0.0616067), wk =   0.0010000
        k(  263) = (   0.2000000   0.8082904   0.1232134), wk =   0.0010000
        k(  264) = (   0.2000000   0.8082904   0.1848201), wk =   0.0010000
        k(  265) = (   0.2000000   0.8082904   0.2464268), wk =   0.0010000
        k(  266) = (   0.2000000   0.8082904   0.3080335), wk =   0.0010000
        k(  267) = (   0.2000000   0.8082904   0.3696402), wk =   0.0010000
        k(  268) = (   0.2000000   0.8082904   0.4312469), wk =   0.0010000
        k(  269) = (   0.2000000   0.8082904   0.4928536), wk =   0.0010000
        k(  270) = (   0.2000000   0.8082904   0.5544603), wk =   0.0010000
        k(  271) = (   0.2000000   0.9237604   0.0000000), wk =   0.0010000
        k(  272) = (   0.2000000   0.9237604   0.0616067), wk =   0.0010000
        k(  273) = (   0.2000000   0.9237604   0.1232134), wk =   0.0010000
        k(  274) = (   0.2000000   0.9237604   0.1848201), wk =   0.0010000
        k(  275) = (   0.2000000   0.9237604   0.2464268), wk =   0.0010000
        k(  276) = (   0.2000000   0.9237604   0.3080335), wk =   0.0010000
        k(  277) = (   0.2000000   0.9237604   0.3696402), wk =   0.0010000
        k(  278) = (   0.2000000   0.9237604   0.4312469), wk =   0.0010000
        k(  279) = (   0.2000000   0.9237604   0.4928536), wk =   0.0010000
        k(  280) = (   0.2000000   0.9237604   0.5544603), wk =   0.0010000
        k(  281) = (   0.2000000   1.0392305   0.0000000), wk =   0.0010000
        k(  282) = (   0.2000000   1.0392305   0.0616067), wk =   0.0010000
        k(  283) = (   0.2000000   1.0392305   0.1232134), wk =   0.0010000
        k(  284) = (   0.2000000   1.0392305   0.1848201), wk =   0.0010000
        k(  285) = (   0.2000000   1.0392305   0.2464268), wk =   0.0010000
        k(  286) = (   0.2000000   1.0392305   0.3080335), wk =   0.0010000
        k(  287) = (   0.2000000   1.0392305   0.3696402), wk =   0.0010000
        k(  288) = (   0.2000000   1.0392305   0.4312469), wk =   0.0010000
        k(  289) = (   0.2000000   1.0392305   0.4928536), wk =   0.0010000
        k(  290) = (   0.2000000   1.0392305   0.5544603), wk =   0.0010000
        k(  291) = (   0.2000000   1.1547005   0.0000000), wk =   0.0010000
        k(  292) = (   0.2000000   1.1547005   0.0616067), wk =   0.0010000
        k(  293) = (   0.2000000   1.1547005   0.1232134), wk =   0.0010000
        k(  294) = (   0.2000000   1.1547005   0.1848201), wk =   0.0010000
        k(  295) = (   0.2000000   1.1547005   0.2464268), wk =   0.0010000
        k(  296) = (   0.2000000   1.1547005   0.3080335), wk =   0.0010000
        k(  297) = (   0.2000000   1.1547005   0.3696402), wk =   0.0010000
        k(  298) = (   0.2000000   1.1547005   0.4312469), wk =   0.0010000
        k(  299) = (   0.2000000   1.1547005   0.4928536), wk =   0.0010000
        k(  300) = (   0.2000000   1.1547005   0.5544603), wk =   0.0010000
        k(  301) = (   0.3000000   0.1732051   0.0000000), wk =   0.0010000
        k(  302) = (   0.3000000   0.1732051   0.0616067), wk =   0.0010000
        k(  303) = (   0.3000000   0.1732051   0.1232134), wk =   0.0010000
        k(  304) = (   0.3000000   0.1732051   0.1848201), wk =   0.0010000
        k(  305) = (   0.3000000   0.1732051   0.2464268), wk =   0.0010000
        k(  306) = (   0.3000000   0.1732051   0.3080335), wk =   0.0010000
        k(  307) = (   0.3000000   0.1732051   0.3696402), wk =   0.0010000
        k(  308) = (   0.3000000   0.1732051   0.4312469), wk =   0.0010000
        k(  309) = (   0.3000000   0.1732051   0.4928536), wk =   0.0010000
        k(  310) = (   0.3000000   0.1732051   0.5544603), wk =   0.0010000
        k(  311) = (   0.3000000   0.2886751   0.0000000), wk =   0.0010000
        k(  312) = (   0.3000000   0.2886751   0.0616067), wk =   0.0010000
        k(  313) = (   0.3000000   0.2886751   0.1232134), wk =   0.0010000
        k(  314) = (   0.3000000   0.2886751   0.1848201), wk =   0.0010000
        k(  315) = (   0.3000000   0.2886751   0.2464268), wk =   0.0010000
        k(  316) = (   0.3000000   0.2886751   0.3080335), wk =   0.0010000
        k(  317) = (   0.3000000   0.2886751   0.3696402), wk =   0.0010000
        k(  318) = (   0.3000000   0.2886751   0.4312469), wk =   0.0010000
        k(  319) = (   0.3000000   0.2886751   0.4928536), wk =   0.0010000
        k(  320) = (   0.3000000   0.2886751   0.5544603), wk =   0.0010000
        k(  321) = (   0.3000000   0.4041452   0.0000000), wk =   0.0010000
        k(  322) = (   0.3000000   0.4041452   0.0616067), wk =   0.0010000
        k(  323) = (   0.3000000   0.4041452   0.1232134), wk =   0.0010000
        k(  324) = (   0.3000000   0.4041452   0.1848201), wk =   0.0010000
        k(  325) = (   0.3000000   0.4041452   0.2464268), wk =   0.0010000
        k(  326) = (   0.3000000   0.4041452   0.3080335), wk =   0.0010000
        k(  327) = (   0.3000000   0.4041452   0.3696402), wk =   0.0010000
        k(  328) = (   0.3000000   0.4041452   0.4312469), wk =   0.0010000
        k(  329) = (   0.3000000   0.4041452   0.4928536), wk =   0.0010000
        k(  330) = (   0.3000000   0.4041452   0.5544603), wk =   0.0010000
        k(  331) = (   0.3000000   0.5196152   0.0000000), wk =   0.0010000
        k(  332) = (   0.3000000   0.5196152   0.0616067), wk =   0.0010000
        k(  333) = (   0.3000000   0.5196152   0.1232134), wk =   0.0010000
        k(  334) = (   0.3000000   0.5196152   0.1848201), wk =   0.0010000
        k(  335) = (   0.3000000   0.5196152   0.2464268), wk =   0.0010000
        k(  336) = (   0.3000000   0.5196152   0.3080335), wk =   0.0010000
        k(  337) = (   0.3000000   0.5196152   0.3696402), wk =   0.0010000
        k(  338) = (   0.3000000   0.5196152   0.4312469), wk =   0.0010000
        k(  339) = (   0.3000000   0.5196152   0.4928536), wk =   0.0010000
        k(  340) = (   0.3000000   0.5196152   0.5544603), wk =   0.0010000
        k(  341) = (   0.3000000   0.6350853   0.0000000), wk =   0.0010000
        k(  342) = (   0.3000000   0.6350853   0.0616067), wk =   0.0010000
        k(  343) = (   0.3000000   0.6350853   0.1232134), wk =   0.0010000
        k(  344) = (   0.3000000   0.6350853   0.1848201), wk =   0.0010000
        k(  345) = (   0.3000000   0.6350853   0.2464268), wk =   0.0010000
        k(  346) = (   0.3000000   0.6350853   0.3080335), wk =   0.0010000
        k(  347) = (   0.3000000   0.6350853   0.3696402), wk =   0.0010000
        k(  348) = (   0.3000000   0.6350853   0.4312469), wk =   0.0010000
        k(  349) = (   0.3000000   0.6350853   0.4928536), wk =   0.0010000
        k(  350) = (   0.3000000   0.6350853   0.5544603), wk =   0.0010000
        k(  351) = (   0.3000000   0.7505553   0.0000000), wk =   0.0010000
        k(  352) = (   0.3000000   0.7505553   0.0616067), wk =   0.0010000
        k(  353) = (   0.3000000   0.7505553   0.1232134), wk =   0.0010000
        k(  354) = (   0.3000000   0.7505553   0.1848201), wk =   0.0010000
        k(  355) = (   0.3000000   0.7505553   0.2464268), wk =   0.0010000
        k(  356) = (   0.3000000   0.7505553   0.3080335), wk =   0.0010000
        k(  357) = (   0.3000000   0.7505553   0.3696402), wk =   0.0010000
        k(  358) = (   0.3000000   0.7505553   0.4312469), wk =   0.0010000
        k(  359) = (   0.3000000   0.7505553   0.4928536), wk =   0.0010000
        k(  360) = (   0.3000000   0.7505553   0.5544603), wk =   0.0010000
        k(  361) = (   0.3000000   0.8660254   0.0000000), wk =   0.0010000
        k(  362) = (   0.3000000   0.8660254   0.0616067), wk =   0.0010000
        k(  363) = (   0.3000000   0.8660254   0.1232134), wk =   0.0010000
        k(  364) = (   0.3000000   0.8660254   0.1848201), wk =   0.0010000
        k(  365) = (   0.3000000   0.8660254   0.2464268), wk =   0.0010000
        k(  366) = (   0.3000000   0.8660254   0.3080335), wk =   0.0010000
        k(  367) = (   0.3000000   0.8660254   0.3696402), wk =   0.0010000
        k(  368) = (   0.3000000   0.8660254   0.4312469), wk =   0.0010000
        k(  369) = (   0.3000000   0.8660254   0.4928536), wk =   0.0010000
        k(  370) = (   0.3000000   0.8660254   0.5544603), wk =   0.0010000
        k(  371) = (   0.3000000   0.9814955   0.0000000), wk =   0.0010000
        k(  372) = (   0.3000000   0.9814955   0.0616067), wk =   0.0010000
        k(  373) = (   0.3000000   0.9814955   0.1232134), wk =   0.0010000
        k(  374) = (   0.3000000   0.9814955   0.1848201), wk =   0.0010000
        k(  375) = (   0.3000000   0.9814955   0.2464268), wk =   0.0010000
        k(  376) = (   0.3000000   0.9814955   0.3080335), wk =   0.0010000
        k(  377) = (   0.3000000   0.9814955   0.3696402), wk =   0.0010000
        k(  378) = (   0.3000000   0.9814955   0.4312469), wk =   0.0010000
        k(  379) = (   0.3000000   0.9814955   0.4928536), wk =   0.0010000
        k(  380) = (   0.3000000   0.9814955   0.5544603), wk =   0.0010000
        k(  381) = (   0.3000000   1.0969655   0.0000000), wk =   0.0010000
        k(  382) = (   0.3000000   1.0969655   0.0616067), wk =   0.0010000
        k(  383) = (   0.3000000   1.0969655   0.1232134), wk =   0.0010000
        k(  384) = (   0.3000000   1.0969655   0.1848201), wk =   0.0010000
        k(  385) = (   0.3000000   1.0969655   0.2464268), wk =   0.0010000
        k(  386) = (   0.3000000   1.0969655   0.3080335), wk =   0.0010000
        k(  387) = (   0.3000000   1.0969655   0.3696402), wk =   0.0010000
        k(  388) = (   0.3000000   1.0969655   0.4312469), wk =   0.0010000
        k(  389) = (   0.3000000   1.0969655   0.4928536), wk =   0.0010000
        k(  390) = (   0.3000000   1.0969655   0.5544603), wk =   0.0010000
        k(  391) = (   0.3000000   1.2124356   0.0000000), wk =   0.0010000
        k(  392) = (   0.3000000   1.2124356   0.0616067), wk =   0.0010000
        k(  393) = (   0.3000000   1.2124356   0.1232134), wk =   0.0010000
        k(  394) = (   0.3000000   1.2124356   0.1848201), wk =   0.0010000
        k(  395) = (   0.3000000   1.2124356   0.2464268), wk =   0.0010000
        k(  396) = (   0.3000000   1.2124356   0.3080335), wk =   0.0010000
        k(  397) = (   0.3000000   1.2124356   0.3696402), wk =   0.0010000
        k(  398) = (   0.3000000   1.2124356   0.4312469), wk =   0.0010000
        k(  399) = (   0.3000000   1.2124356   0.4928536), wk =   0.0010000
        k(  400) = (   0.3000000   1.2124356   0.5544603), wk =   0.0010000
        k(  401) = (   0.4000000   0.2309401   0.0000000), wk =   0.0010000
        k(  402) = (   0.4000000   0.2309401   0.0616067), wk =   0.0010000
        k(  403) = (   0.4000000   0.2309401   0.1232134), wk =   0.0010000
        k(  404) = (   0.4000000   0.2309401   0.1848201), wk =   0.0010000
        k(  405) = (   0.4000000   0.2309401   0.2464268), wk =   0.0010000
        k(  406) = (   0.4000000   0.2309401   0.3080335), wk =   0.0010000
        k(  407) = (   0.4000000   0.2309401   0.3696402), wk =   0.0010000
        k(  408) = (   0.4000000   0.2309401   0.4312469), wk =   0.0010000
        k(  409) = (   0.4000000   0.2309401   0.4928536), wk =   0.0010000
        k(  410) = (   0.4000000   0.2309401   0.5544603), wk =   0.0010000
        k(  411) = (   0.4000000   0.3464102   0.0000000), wk =   0.0010000
        k(  412) = (   0.4000000   0.3464102   0.0616067), wk =   0.0010000
        k(  413) = (   0.4000000   0.3464102   0.1232134), wk =   0.0010000
        k(  414) = (   0.4000000   0.3464102   0.1848201), wk =   0.0010000
        k(  415) = (   0.4000000   0.3464102   0.2464268), wk =   0.0010000
        k(  416) = (   0.4000000   0.3464102   0.3080335), wk =   0.0010000
        k(  417) = (   0.4000000   0.3464102   0.3696402), wk =   0.0010000
        k(  418) = (   0.4000000   0.3464102   0.4312469), wk =   0.0010000
        k(  419) = (   0.4000000   0.3464102   0.4928536), wk =   0.0010000
        k(  420) = (   0.4000000   0.3464102   0.5544603), wk =   0.0010000
        k(  421) = (   0.4000000   0.4618802   0.0000000), wk =   0.0010000
        k(  422) = (   0.4000000   0.4618802   0.0616067), wk =   0.0010000
        k(  423) = (   0.4000000   0.4618802   0.1232134), wk =   0.0010000
        k(  424) = (   0.4000000   0.4618802   0.1848201), wk =   0.0010000
        k(  425) = (   0.4000000   0.4618802   0.2464268), wk =   0.0010000
        k(  426) = (   0.4000000   0.4618802   0.3080335), wk =   0.0010000
        k(  427) = (   0.4000000   0.4618802   0.3696402), wk =   0.0010000
        k(  428) = (   0.4000000   0.4618802   0.4312469), wk =   0.0010000
        k(  429) = (   0.4000000   0.4618802   0.4928536), wk =   0.0010000
        k(  430) = (   0.4000000   0.4618802   0.5544603), wk =   0.0010000
        k(  431) = (   0.4000000   0.5773503   0.0000000), wk =   0.0010000
        k(  432) = (   0.4000000   0.5773503   0.0616067), wk =   0.0010000
        k(  433) = (   0.4000000   0.5773503   0.1232134), wk =   0.0010000
        k(  434) = (   0.4000000   0.5773503   0.1848201), wk =   0.0010000
        k(  435) = (   0.4000000   0.5773503   0.2464268), wk =   0.0010000
        k(  436) = (   0.4000000   0.5773503   0.3080335), wk =   0.0010000
        k(  437) = (   0.4000000   0.5773503   0.3696402), wk =   0.0010000
        k(  438) = (   0.4000000   0.5773503   0.4312469), wk =   0.0010000
        k(  439) = (   0.4000000   0.5773503   0.4928536), wk =   0.0010000
        k(  440) = (   0.4000000   0.5773503   0.5544603), wk =   0.0010000
        k(  441) = (   0.4000000   0.6928203   0.0000000), wk =   0.0010000
        k(  442) = (   0.4000000   0.6928203   0.0616067), wk =   0.0010000
        k(  443) = (   0.4000000   0.6928203   0.1232134), wk =   0.0010000
        k(  444) = (   0.4000000   0.6928203   0.1848201), wk =   0.0010000
        k(  445) = (   0.4000000   0.6928203   0.2464268), wk =   0.0010000
        k(  446) = (   0.4000000   0.6928203   0.3080335), wk =   0.0010000
        k(  447) = (   0.4000000   0.6928203   0.3696402), wk =   0.0010000
        k(  448) = (   0.4000000   0.6928203   0.4312469), wk =   0.0010000
        k(  449) = (   0.4000000   0.6928203   0.4928536), wk =   0.0010000
        k(  450) = (   0.4000000   0.6928203   0.5544603), wk =   0.0010000
        k(  451) = (   0.4000000   0.8082904   0.0000000), wk =   0.0010000
        k(  452) = (   0.4000000   0.8082904   0.0616067), wk =   0.0010000
        k(  453) = (   0.4000000   0.8082904   0.1232134), wk =   0.0010000
        k(  454) = (   0.4000000   0.8082904   0.1848201), wk =   0.0010000
        k(  455) = (   0.4000000   0.8082904   0.2464268), wk =   0.0010000
        k(  456) = (   0.4000000   0.8082904   0.3080335), wk =   0.0010000
        k(  457) = (   0.4000000   0.8082904   0.3696402), wk =   0.0010000
        k(  458) = (   0.4000000   0.8082904   0.4312469), wk =   0.0010000
        k(  459) = (   0.4000000   0.8082904   0.4928536), wk =   0.0010000
        k(  460) = (   0.4000000   0.8082904   0.5544603), wk =   0.0010000
        k(  461) = (   0.4000000   0.9237604   0.0000000), wk =   0.0010000
        k(  462) = (   0.4000000   0.9237604   0.0616067), wk =   0.0010000
        k(  463) = (   0.4000000   0.9237604   0.1232134), wk =   0.0010000
        k(  464) = (   0.4000000   0.9237604   0.1848201), wk =   0.0010000
        k(  465) = (   0.4000000   0.9237604   0.2464268), wk =   0.0010000
        k(  466) = (   0.4000000   0.9237604   0.3080335), wk =   0.0010000
        k(  467) = (   0.4000000   0.9237604   0.3696402), wk =   0.0010000
        k(  468) = (   0.4000000   0.9237604   0.4312469), wk =   0.0010000
        k(  469) = (   0.4000000   0.9237604   0.4928536), wk =   0.0010000
        k(  470) = (   0.4000000   0.9237604   0.5544603), wk =   0.0010000
        k(  471) = (   0.4000000   1.0392305   0.0000000), wk =   0.0010000
        k(  472) = (   0.4000000   1.0392305   0.0616067), wk =   0.0010000
        k(  473) = (   0.4000000   1.0392305   0.1232134), wk =   0.0010000
        k(  474) = (   0.4000000   1.0392305   0.1848201), wk =   0.0010000
        k(  475) = (   0.4000000   1.0392305   0.2464268), wk =   0.0010000
        k(  476) = (   0.4000000   1.0392305   0.3080335), wk =   0.0010000
        k(  477) = (   0.4000000   1.0392305   0.3696402), wk =   0.0010000
        k(  478) = (   0.4000000   1.0392305   0.4312469), wk =   0.0010000
        k(  479) = (   0.4000000   1.0392305   0.4928536), wk =   0.0010000
        k(  480) = (   0.4000000   1.0392305   0.5544603), wk =   0.0010000
        k(  481) = (   0.4000000   1.1547005   0.0000000), wk =   0.0010000
        k(  482) = (   0.4000000   1.1547005   0.0616067), wk =   0.0010000
        k(  483) = (   0.4000000   1.1547005   0.1232134), wk =   0.0010000
        k(  484) = (   0.4000000   1.1547005   0.1848201), wk =   0.0010000
        k(  485) = (   0.4000000   1.1547005   0.2464268), wk =   0.0010000
        k(  486) = (   0.4000000   1.1547005   0.3080335), wk =   0.0010000
        k(  487) = (   0.4000000   1.1547005   0.3696402), wk =   0.0010000
        k(  488) = (   0.4000000   1.1547005   0.4312469), wk =   0.0010000
        k(  489) = (   0.4000000   1.1547005   0.4928536), wk =   0.0010000
        k(  490) = (   0.4000000   1.1547005   0.5544603), wk =   0.0010000
        k(  491) = (   0.4000000   1.2701706   0.0000000), wk =   0.0010000
        k(  492) = (   0.4000000   1.2701706   0.0616067), wk =   0.0010000
        k(  493) = (   0.4000000   1.2701706   0.1232134), wk =   0.0010000
        k(  494) = (   0.4000000   1.2701706   0.1848201), wk =   0.0010000
        k(  495) = (   0.4000000   1.2701706   0.2464268), wk =   0.0010000
        k(  496) = (   0.4000000   1.2701706   0.3080335), wk =   0.0010000
        k(  497) = (   0.4000000   1.2701706   0.3696402), wk =   0.0010000
        k(  498) = (   0.4000000   1.2701706   0.4312469), wk =   0.0010000
        k(  499) = (   0.4000000   1.2701706   0.4928536), wk =   0.0010000
        k(  500) = (   0.4000000   1.2701706   0.5544603), wk =   0.0010000
        k(  501) = (   0.5000000   0.2886751   0.0000000), wk =   0.0010000
        k(  502) = (   0.5000000   0.2886751   0.0616067), wk =   0.0010000
        k(  503) = (   0.5000000   0.2886751   0.1232134), wk =   0.0010000
        k(  504) = (   0.5000000   0.2886751   0.1848201), wk =   0.0010000
        k(  505) = (   0.5000000   0.2886751   0.2464268), wk =   0.0010000
        k(  506) = (   0.5000000   0.2886751   0.3080335), wk =   0.0010000
        k(  507) = (   0.5000000   0.2886751   0.3696402), wk =   0.0010000
        k(  508) = (   0.5000000   0.2886751   0.4312469), wk =   0.0010000
        k(  509) = (   0.5000000   0.2886751   0.4928536), wk =   0.0010000
        k(  510) = (   0.5000000   0.2886751   0.5544603), wk =   0.0010000
        k(  511) = (   0.5000000   0.4041452   0.0000000), wk =   0.0010000
        k(  512) = (   0.5000000   0.4041452   0.0616067), wk =   0.0010000
        k(  513) = (   0.5000000   0.4041452   0.1232134), wk =   0.0010000
        k(  514) = (   0.5000000   0.4041452   0.1848201), wk =   0.0010000
        k(  515) = (   0.5000000   0.4041452   0.2464268), wk =   0.0010000
        k(  516) = (   0.5000000   0.4041452   0.3080335), wk =   0.0010000
        k(  517) = (   0.5000000   0.4041452   0.3696402), wk =   0.0010000
        k(  518) = (   0.5000000   0.4041452   0.4312469), wk =   0.0010000
        k(  519) = (   0.5000000   0.4041452   0.4928536), wk =   0.0010000
        k(  520) = (   0.5000000   0.4041452   0.5544603), wk =   0.0010000
        k(  521) = (   0.5000000   0.5196152   0.0000000), wk =   0.0010000
        k(  522) = (   0.5000000   0.5196152   0.0616067), wk =   0.0010000
        k(  523) = (   0.5000000   0.5196152   0.1232134), wk =   0.0010000
        k(  524) = (   0.5000000   0.5196152   0.1848201), wk =   0.0010000
        k(  525) = (   0.5000000   0.5196152   0.2464268), wk =   0.0010000
        k(  526) = (   0.5000000   0.5196152   0.3080335), wk =   0.0010000
        k(  527) = (   0.5000000   0.5196152   0.3696402), wk =   0.0010000
        k(  528) = (   0.5000000   0.5196152   0.4312469), wk =   0.0010000
        k(  529) = (   0.5000000   0.5196152   0.4928536), wk =   0.0010000
        k(  530) = (   0.5000000   0.5196152   0.5544603), wk =   0.0010000
        k(  531) = (   0.5000000   0.6350853   0.0000000), wk =   0.0010000
        k(  532) = (   0.5000000   0.6350853   0.0616067), wk =   0.0010000
        k(  533) = (   0.5000000   0.6350853   0.1232134), wk =   0.0010000
        k(  534) = (   0.5000000   0.6350853   0.1848201), wk =   0.0010000
        k(  535) = (   0.5000000   0.6350853   0.2464268), wk =   0.0010000
        k(  536) = (   0.5000000   0.6350853   0.3080335), wk =   0.0010000
        k(  537) = (   0.5000000   0.6350853   0.3696402), wk =   0.0010000
        k(  538) = (   0.5000000   0.6350853   0.4312469), wk =   0.0010000
        k(  539) = (   0.5000000   0.6350853   0.4928536), wk =   0.0010000
        k(  540) = (   0.5000000   0.6350853   0.5544603), wk =   0.0010000
        k(  541) = (   0.5000000   0.7505553   0.0000000), wk =   0.0010000
        k(  542) = (   0.5000000   0.7505553   0.0616067), wk =   0.0010000
        k(  543) = (   0.5000000   0.7505553   0.1232134), wk =   0.0010000
        k(  544) = (   0.5000000   0.7505553   0.1848201), wk =   0.0010000
        k(  545) = (   0.5000000   0.7505553   0.2464268), wk =   0.0010000
        k(  546) = (   0.5000000   0.7505553   0.3080335), wk =   0.0010000
        k(  547) = (   0.5000000   0.7505553   0.3696402), wk =   0.0010000
        k(  548) = (   0.5000000   0.7505553   0.4312469), wk =   0.0010000
        k(  549) = (   0.5000000   0.7505553   0.4928536), wk =   0.0010000
        k(  550) = (   0.5000000   0.7505553   0.5544603), wk =   0.0010000
        k(  551) = (   0.5000000   0.8660254   0.0000000), wk =   0.0010000
        k(  552) = (   0.5000000   0.8660254   0.0616067), wk =   0.0010000
        k(  553) = (   0.5000000   0.8660254   0.1232134), wk =   0.0010000
        k(  554) = (   0.5000000   0.8660254   0.1848201), wk =   0.0010000
        k(  555) = (   0.5000000   0.8660254   0.2464268), wk =   0.0010000
        k(  556) = (   0.5000000   0.8660254   0.3080335), wk =   0.0010000
        k(  557) = (   0.5000000   0.8660254   0.3696402), wk =   0.0010000
        k(  558) = (   0.5000000   0.8660254   0.4312469), wk =   0.0010000
        k(  559) = (   0.5000000   0.8660254   0.4928536), wk =   0.0010000
        k(  560) = (   0.5000000   0.8660254   0.5544603), wk =   0.0010000
        k(  561) = (   0.5000000   0.9814955   0.0000000), wk =   0.0010000
        k(  562) = (   0.5000000   0.9814955   0.0616067), wk =   0.0010000
        k(  563) = (   0.5000000   0.9814955   0.1232134), wk =   0.0010000
        k(  564) = (   0.5000000   0.9814955   0.1848201), wk =   0.0010000
        k(  565) = (   0.5000000   0.9814955   0.2464268), wk =   0.0010000
        k(  566) = (   0.5000000   0.9814955   0.3080335), wk =   0.0010000
        k(  567) = (   0.5000000   0.9814955   0.3696402), wk =   0.0010000
        k(  568) = (   0.5000000   0.9814955   0.4312469), wk =   0.0010000
        k(  569) = (   0.5000000   0.9814955   0.4928536), wk =   0.0010000
        k(  570) = (   0.5000000   0.9814955   0.5544603), wk =   0.0010000
        k(  571) = (   0.5000000   1.0969655   0.0000000), wk =   0.0010000
        k(  572) = (   0.5000000   1.0969655   0.0616067), wk =   0.0010000
        k(  573) = (   0.5000000   1.0969655   0.1232134), wk =   0.0010000
        k(  574) = (   0.5000000   1.0969655   0.1848201), wk =   0.0010000
        k(  575) = (   0.5000000   1.0969655   0.2464268), wk =   0.0010000
        k(  576) = (   0.5000000   1.0969655   0.3080335), wk =   0.0010000
        k(  577) = (   0.5000000   1.0969655   0.3696402), wk =   0.0010000
        k(  578) = (   0.5000000   1.0969655   0.4312469), wk =   0.0010000
        k(  579) = (   0.5000000   1.0969655   0.4928536), wk =   0.0010000
        k(  580) = (   0.5000000   1.0969655   0.5544603), wk =   0.0010000
        k(  581) = (   0.5000000   1.2124356   0.0000000), wk =   0.0010000
        k(  582) = (   0.5000000   1.2124356   0.0616067), wk =   0.0010000
        k(  583) = (   0.5000000   1.2124356   0.1232134), wk =   0.0010000
        k(  584) = (   0.5000000   1.2124356   0.1848201), wk =   0.0010000
        k(  585) = (   0.5000000   1.2124356   0.2464268), wk =   0.0010000
        k(  586) = (   0.5000000   1.2124356   0.3080335), wk =   0.0010000
        k(  587) = (   0.5000000   1.2124356   0.3696402), wk =   0.0010000
        k(  588) = (   0.5000000   1.2124356   0.4312469), wk =   0.0010000
        k(  589) = (   0.5000000   1.2124356   0.4928536), wk =   0.0010000
        k(  590) = (   0.5000000   1.2124356   0.5544603), wk =   0.0010000
        k(  591) = (   0.5000000   1.3279056   0.0000000), wk =   0.0010000
        k(  592) = (   0.5000000   1.3279056   0.0616067), wk =   0.0010000
        k(  593) = (   0.5000000   1.3279056   0.1232134), wk =   0.0010000
        k(  594) = (   0.5000000   1.3279056   0.1848201), wk =   0.0010000
        k(  595) = (   0.5000000   1.3279056   0.2464268), wk =   0.0010000
        k(  596) = (   0.5000000   1.3279056   0.3080335), wk =   0.0010000
        k(  597) = (   0.5000000   1.3279056   0.3696402), wk =   0.0010000
        k(  598) = (   0.5000000   1.3279056   0.4312469), wk =   0.0010000
        k(  599) = (   0.5000000   1.3279056   0.4928536), wk =   0.0010000
        k(  600) = (   0.5000000   1.3279056   0.5544603), wk =   0.0010000
        k(  601) = (   0.6000000   0.3464102   0.0000000), wk =   0.0010000
        k(  602) = (   0.6000000   0.3464102   0.0616067), wk =   0.0010000
        k(  603) = (   0.6000000   0.3464102   0.1232134), wk =   0.0010000
        k(  604) = (   0.6000000   0.3464102   0.1848201), wk =   0.0010000
        k(  605) = (   0.6000000   0.3464102   0.2464268), wk =   0.0010000
        k(  606) = (   0.6000000   0.3464102   0.3080335), wk =   0.0010000
        k(  607) = (   0.6000000   0.3464102   0.3696402), wk =   0.0010000
        k(  608) = (   0.6000000   0.3464102   0.4312469), wk =   0.0010000
        k(  609) = (   0.6000000   0.3464102   0.4928536), wk =   0.0010000
        k(  610) = (   0.6000000   0.3464102   0.5544603), wk =   0.0010000
        k(  611) = (   0.6000000   0.4618802   0.0000000), wk =   0.0010000
        k(  612) = (   0.6000000   0.4618802   0.0616067), wk =   0.0010000
        k(  613) = (   0.6000000   0.4618802   0.1232134), wk =   0.0010000
        k(  614) = (   0.6000000   0.4618802   0.1848201), wk =   0.0010000
        k(  615) = (   0.6000000   0.4618802   0.2464268), wk =   0.0010000
        k(  616) = (   0.6000000   0.4618802   0.3080335), wk =   0.0010000
        k(  617) = (   0.6000000   0.4618802   0.3696402), wk =   0.0010000
        k(  618) = (   0.6000000   0.4618802   0.4312469), wk =   0.0010000
        k(  619) = (   0.6000000   0.4618802   0.4928536), wk =   0.0010000
        k(  620) = (   0.6000000   0.4618802   0.5544603), wk =   0.0010000
        k(  621) = (   0.6000000   0.5773503   0.0000000), wk =   0.0010000
        k(  622) = (   0.6000000   0.5773503   0.0616067), wk =   0.0010000
        k(  623) = (   0.6000000   0.5773503   0.1232134), wk =   0.0010000
        k(  624) = (   0.6000000   0.5773503   0.1848201), wk =   0.0010000
        k(  625) = (   0.6000000   0.5773503   0.2464268), wk =   0.0010000
        k(  626) = (   0.6000000   0.5773503   0.3080335), wk =   0.0010000
        k(  627) = (   0.6000000   0.5773503   0.3696402), wk =   0.0010000
        k(  628) = (   0.6000000   0.5773503   0.4312469), wk =   0.0010000
        k(  629) = (   0.6000000   0.5773503   0.4928536), wk =   0.0010000
        k(  630) = (   0.6000000   0.5773503   0.5544603), wk =   0.0010000
        k(  631) = (   0.6000000   0.6928203   0.0000000), wk =   0.0010000
        k(  632) = (   0.6000000   0.6928203   0.0616067), wk =   0.0010000
        k(  633) = (   0.6000000   0.6928203   0.1232134), wk =   0.0010000
        k(  634) = (   0.6000000   0.6928203   0.1848201), wk =   0.0010000
        k(  635) = (   0.6000000   0.6928203   0.2464268), wk =   0.0010000
        k(  636) = (   0.6000000   0.6928203   0.3080335), wk =   0.0010000
        k(  637) = (   0.6000000   0.6928203   0.3696402), wk =   0.0010000
        k(  638) = (   0.6000000   0.6928203   0.4312469), wk =   0.0010000
        k(  639) = (   0.6000000   0.6928203   0.4928536), wk =   0.0010000
        k(  640) = (   0.6000000   0.6928203   0.5544603), wk =   0.0010000
        k(  641) = (   0.6000000   0.8082904   0.0000000), wk =   0.0010000
        k(  642) = (   0.6000000   0.8082904   0.0616067), wk =   0.0010000
        k(  643) = (   0.6000000   0.8082904   0.1232134), wk =   0.0010000
        k(  644) = (   0.6000000   0.8082904   0.1848201), wk =   0.0010000
        k(  645) = (   0.6000000   0.8082904   0.2464268), wk =   0.0010000
        k(  646) = (   0.6000000   0.8082904   0.3080335), wk =   0.0010000
        k(  647) = (   0.6000000   0.8082904   0.3696402), wk =   0.0010000
        k(  648) = (   0.6000000   0.8082904   0.4312469), wk =   0.0010000
        k(  649) = (   0.6000000   0.8082904   0.4928536), wk =   0.0010000
        k(  650) = (   0.6000000   0.8082904   0.5544603), wk =   0.0010000
        k(  651) = (   0.6000000   0.9237604   0.0000000), wk =   0.0010000
        k(  652) = (   0.6000000   0.9237604   0.0616067), wk =   0.0010000
        k(  653) = (   0.6000000   0.9237604   0.1232134), wk =   0.0010000
        k(  654) = (   0.6000000   0.9237604   0.1848201), wk =   0.0010000
        k(  655) = (   0.6000000   0.9237604   0.2464268), wk =   0.0010000
        k(  656) = (   0.6000000   0.9237604   0.3080335), wk =   0.0010000
        k(  657) = (   0.6000000   0.9237604   0.3696402), wk =   0.0010000
        k(  658) = (   0.6000000   0.9237604   0.4312469), wk =   0.0010000
        k(  659) = (   0.6000000   0.9237604   0.4928536), wk =   0.0010000
        k(  660) = (   0.6000000   0.9237604   0.5544603), wk =   0.0010000
        k(  661) = (   0.6000000   1.0392305   0.0000000), wk =   0.0010000
        k(  662) = (   0.6000000   1.0392305   0.0616067), wk =   0.0010000
        k(  663) = (   0.6000000   1.0392305   0.1232134), wk =   0.0010000
        k(  664) = (   0.6000000   1.0392305   0.1848201), wk =   0.0010000
        k(  665) = (   0.6000000   1.0392305   0.2464268), wk =   0.0010000
        k(  666) = (   0.6000000   1.0392305   0.3080335), wk =   0.0010000
        k(  667) = (   0.6000000   1.0392305   0.3696402), wk =   0.0010000
        k(  668) = (   0.6000000   1.0392305   0.4312469), wk =   0.0010000
        k(  669) = (   0.6000000   1.0392305   0.4928536), wk =   0.0010000
        k(  670) = (   0.6000000   1.0392305   0.5544603), wk =   0.0010000
        k(  671) = (   0.6000000   1.1547005   0.0000000), wk =   0.0010000
        k(  672) = (   0.6000000   1.1547005   0.0616067), wk =   0.0010000
        k(  673) = (   0.6000000   1.1547005   0.1232134), wk =   0.0010000
        k(  674) = (   0.6000000   1.1547005   0.1848201), wk =   0.0010000
        k(  675) = (   0.6000000   1.1547005   0.2464268), wk =   0.0010000
        k(  676) = (   0.6000000   1.1547005   0.3080335), wk =   0.0010000
        k(  677) = (   0.6000000   1.1547005   0.3696402), wk =   0.0010000
        k(  678) = (   0.6000000   1.1547005   0.4312469), wk =   0.0010000
        k(  679) = (   0.6000000   1.1547005   0.4928536), wk =   0.0010000
        k(  680) = (   0.6000000   1.1547005   0.5544603), wk =   0.0010000
        k(  681) = (   0.6000000   1.2701706   0.0000000), wk =   0.0010000
        k(  682) = (   0.6000000   1.2701706   0.0616067), wk =   0.0010000
        k(  683) = (   0.6000000   1.2701706   0.1232134), wk =   0.0010000
        k(  684) = (   0.6000000   1.2701706   0.1848201), wk =   0.0010000
        k(  685) = (   0.6000000   1.2701706   0.2464268), wk =   0.0010000
        k(  686) = (   0.6000000   1.2701706   0.3080335), wk =   0.0010000
        k(  687) = (   0.6000000   1.2701706   0.3696402), wk =   0.0010000
        k(  688) = (   0.6000000   1.2701706   0.4312469), wk =   0.0010000
        k(  689) = (   0.6000000   1.2701706   0.4928536), wk =   0.0010000
        k(  690) = (   0.6000000   1.2701706   0.5544603), wk =   0.0010000
        k(  691) = (   0.6000000   1.3856406   0.0000000), wk =   0.0010000
        k(  692) = (   0.6000000   1.3856406   0.0616067), wk =   0.0010000
        k(  693) = (   0.6000000   1.3856406   0.1232134), wk =   0.0010000
        k(  694) = (   0.6000000   1.3856406   0.1848201), wk =   0.0010000
        k(  695) = (   0.6000000   1.3856406   0.2464268), wk =   0.0010000
        k(  696) = (   0.6000000   1.3856406   0.3080335), wk =   0.0010000
        k(  697) = (   0.6000000   1.3856406   0.3696402), wk =   0.0010000
        k(  698) = (   0.6000000   1.3856406   0.4312469), wk =   0.0010000
        k(  699) = (   0.6000000   1.3856406   0.4928536), wk =   0.0010000
        k(  700) = (   0.6000000   1.3856406   0.5544603), wk =   0.0010000
        k(  701) = (   0.7000000   0.4041452   0.0000000), wk =   0.0010000
        k(  702) = (   0.7000000   0.4041452   0.0616067), wk =   0.0010000
        k(  703) = (   0.7000000   0.4041452   0.1232134), wk =   0.0010000
        k(  704) = (   0.7000000   0.4041452   0.1848201), wk =   0.0010000
        k(  705) = (   0.7000000   0.4041452   0.2464268), wk =   0.0010000
        k(  706) = (   0.7000000   0.4041452   0.3080335), wk =   0.0010000
        k(  707) = (   0.7000000   0.4041452   0.3696402), wk =   0.0010000
        k(  708) = (   0.7000000   0.4041452   0.4312469), wk =   0.0010000
        k(  709) = (   0.7000000   0.4041452   0.4928536), wk =   0.0010000
        k(  710) = (   0.7000000   0.4041452   0.5544603), wk =   0.0010000
        k(  711) = (   0.7000000   0.5196152   0.0000000), wk =   0.0010000
        k(  712) = (   0.7000000   0.5196152   0.0616067), wk =   0.0010000
        k(  713) = (   0.7000000   0.5196152   0.1232134), wk =   0.0010000
        k(  714) = (   0.7000000   0.5196152   0.1848201), wk =   0.0010000
        k(  715) = (   0.7000000   0.5196152   0.2464268), wk =   0.0010000
        k(  716) = (   0.7000000   0.5196152   0.3080335), wk =   0.0010000
        k(  717) = (   0.7000000   0.5196152   0.3696402), wk =   0.0010000
        k(  718) = (   0.7000000   0.5196152   0.4312469), wk =   0.0010000
        k(  719) = (   0.7000000   0.5196152   0.4928536), wk =   0.0010000
        k(  720) = (   0.7000000   0.5196152   0.5544603), wk =   0.0010000
        k(  721) = (   0.7000000   0.6350853   0.0000000), wk =   0.0010000
        k(  722) = (   0.7000000   0.6350853   0.0616067), wk =   0.0010000
        k(  723) = (   0.7000000   0.6350853   0.1232134), wk =   0.0010000
        k(  724) = (   0.7000000   0.6350853   0.1848201), wk =   0.0010000
        k(  725) = (   0.7000000   0.6350853   0.2464268), wk =   0.0010000
        k(  726) = (   0.7000000   0.6350853   0.3080335), wk =   0.0010000
        k(  727) = (   0.7000000   0.6350853   0.3696402), wk =   0.0010000
        k(  728) = (   0.7000000   0.6350853   0.4312469), wk =   0.0010000
        k(  729) = (   0.7000000   0.6350853   0.4928536), wk =   0.0010000
        k(  730) = (   0.7000000   0.6350853   0.5544603), wk =   0.0010000
        k(  731) = (   0.7000000   0.7505553   0.0000000), wk =   0.0010000
        k(  732) = (   0.7000000   0.7505553   0.0616067), wk =   0.0010000
        k(  733) = (   0.7000000   0.7505553   0.1232134), wk =   0.0010000
        k(  734) = (   0.7000000   0.7505553   0.1848201), wk =   0.0010000
        k(  735) = (   0.7000000   0.7505553   0.2464268), wk =   0.0010000
        k(  736) = (   0.7000000   0.7505553   0.3080335), wk =   0.0010000
        k(  737) = (   0.7000000   0.7505553   0.3696402), wk =   0.0010000
        k(  738) = (   0.7000000   0.7505553   0.4312469), wk =   0.0010000
        k(  739) = (   0.7000000   0.7505553   0.4928536), wk =   0.0010000
        k(  740) = (   0.7000000   0.7505553   0.5544603), wk =   0.0010000
        k(  741) = (   0.7000000   0.8660254   0.0000000), wk =   0.0010000
        k(  742) = (   0.7000000   0.8660254   0.0616067), wk =   0.0010000
        k(  743) = (   0.7000000   0.8660254   0.1232134), wk =   0.0010000
        k(  744) = (   0.7000000   0.8660254   0.1848201), wk =   0.0010000
        k(  745) = (   0.7000000   0.8660254   0.2464268), wk =   0.0010000
        k(  746) = (   0.7000000   0.8660254   0.3080335), wk =   0.0010000
        k(  747) = (   0.7000000   0.8660254   0.3696402), wk =   0.0010000
        k(  748) = (   0.7000000   0.8660254   0.4312469), wk =   0.0010000
        k(  749) = (   0.7000000   0.8660254   0.4928536), wk =   0.0010000
        k(  750) = (   0.7000000   0.8660254   0.5544603), wk =   0.0010000
        k(  751) = (   0.7000000   0.9814955   0.0000000), wk =   0.0010000
        k(  752) = (   0.7000000   0.9814955   0.0616067), wk =   0.0010000
        k(  753) = (   0.7000000   0.9814955   0.1232134), wk =   0.0010000
        k(  754) = (   0.7000000   0.9814955   0.1848201), wk =   0.0010000
        k(  755) = (   0.7000000   0.9814955   0.2464268), wk =   0.0010000
        k(  756) = (   0.7000000   0.9814955   0.3080335), wk =   0.0010000
        k(  757) = (   0.7000000   0.9814955   0.3696402), wk =   0.0010000
        k(  758) = (   0.7000000   0.9814955   0.4312469), wk =   0.0010000
        k(  759) = (   0.7000000   0.9814955   0.4928536), wk =   0.0010000
        k(  760) = (   0.7000000   0.9814955   0.5544603), wk =   0.0010000
        k(  761) = (   0.7000000   1.0969655   0.0000000), wk =   0.0010000
        k(  762) = (   0.7000000   1.0969655   0.0616067), wk =   0.0010000
        k(  763) = (   0.7000000   1.0969655   0.1232134), wk =   0.0010000
        k(  764) = (   0.7000000   1.0969655   0.1848201), wk =   0.0010000
        k(  765) = (   0.7000000   1.0969655   0.2464268), wk =   0.0010000
        k(  766) = (   0.7000000   1.0969655   0.3080335), wk =   0.0010000
        k(  767) = (   0.7000000   1.0969655   0.3696402), wk =   0.0010000
        k(  768) = (   0.7000000   1.0969655   0.4312469), wk =   0.0010000
        k(  769) = (   0.7000000   1.0969655   0.4928536), wk =   0.0010000
        k(  770) = (   0.7000000   1.0969655   0.5544603), wk =   0.0010000
        k(  771) = (   0.7000000   1.2124356   0.0000000), wk =   0.0010000
        k(  772) = (   0.7000000   1.2124356   0.0616067), wk =   0.0010000
        k(  773) = (   0.7000000   1.2124356   0.1232134), wk =   0.0010000
        k(  774) = (   0.7000000   1.2124356   0.1848201), wk =   0.0010000
        k(  775) = (   0.7000000   1.2124356   0.2464268), wk =   0.0010000
        k(  776) = (   0.7000000   1.2124356   0.3080335), wk =   0.0010000
        k(  777) = (   0.7000000   1.2124356   0.3696402), wk =   0.0010000
        k(  778) = (   0.7000000   1.2124356   0.4312469), wk =   0.0010000
        k(  779) = (   0.7000000   1.2124356   0.4928536), wk =   0.0010000
        k(  780) = (   0.7000000   1.2124356   0.5544603), wk =   0.0010000
        k(  781) = (   0.7000000   1.3279056   0.0000000), wk =   0.0010000
        k(  782) = (   0.7000000   1.3279056   0.0616067), wk =   0.0010000
        k(  783) = (   0.7000000   1.3279056   0.1232134), wk =   0.0010000
        k(  784) = (   0.7000000   1.3279056   0.1848201), wk =   0.0010000
        k(  785) = (   0.7000000   1.3279056   0.2464268), wk =   0.0010000
        k(  786) = (   0.7000000   1.3279056   0.3080335), wk =   0.0010000
        k(  787) = (   0.7000000   1.3279056   0.3696402), wk =   0.0010000
        k(  788) = (   0.7000000   1.3279056   0.4312469), wk =   0.0010000
        k(  789) = (   0.7000000   1.3279056   0.4928536), wk =   0.0010000
        k(  790) = (   0.7000000   1.3279056   0.5544603), wk =   0.0010000
        k(  791) = (   0.7000000   1.4433757   0.0000000), wk =   0.0010000
        k(  792) = (   0.7000000   1.4433757   0.0616067), wk =   0.0010000
        k(  793) = (   0.7000000   1.4433757   0.1232134), wk =   0.0010000
        k(  794) = (   0.7000000   1.4433757   0.1848201), wk =   0.0010000
        k(  795) = (   0.7000000   1.4433757   0.2464268), wk =   0.0010000
        k(  796) = (   0.7000000   1.4433757   0.3080335), wk =   0.0010000
        k(  797) = (   0.7000000   1.4433757   0.3696402), wk =   0.0010000
        k(  798) = (   0.7000000   1.4433757   0.4312469), wk =   0.0010000
        k(  799) = (   0.7000000   1.4433757   0.4928536), wk =   0.0010000
        k(  800) = (   0.7000000   1.4433757   0.5544603), wk =   0.0010000
        k(  801) = (   0.8000000   0.4618802   0.0000000), wk =   0.0010000
        k(  802) = (   0.8000000   0.4618802   0.0616067), wk =   0.0010000
        k(  803) = (   0.8000000   0.4618802   0.1232134), wk =   0.0010000
        k(  804) = (   0.8000000   0.4618802   0.1848201), wk =   0.0010000
        k(  805) = (   0.8000000   0.4618802   0.2464268), wk =   0.0010000
        k(  806) = (   0.8000000   0.4618802   0.3080335), wk =   0.0010000
        k(  807) = (   0.8000000   0.4618802   0.3696402), wk =   0.0010000
        k(  808) = (   0.8000000   0.4618802   0.4312469), wk =   0.0010000
        k(  809) = (   0.8000000   0.4618802   0.4928536), wk =   0.0010000
        k(  810) = (   0.8000000   0.4618802   0.5544603), wk =   0.0010000
        k(  811) = (   0.8000000   0.5773503   0.0000000), wk =   0.0010000
        k(  812) = (   0.8000000   0.5773503   0.0616067), wk =   0.0010000
        k(  813) = (   0.8000000   0.5773503   0.1232134), wk =   0.0010000
        k(  814) = (   0.8000000   0.5773503   0.1848201), wk =   0.0010000
        k(  815) = (   0.8000000   0.5773503   0.2464268), wk =   0.0010000
        k(  816) = (   0.8000000   0.5773503   0.3080335), wk =   0.0010000
        k(  817) = (   0.8000000   0.5773503   0.3696402), wk =   0.0010000
        k(  818) = (   0.8000000   0.5773503   0.4312469), wk =   0.0010000
        k(  819) = (   0.8000000   0.5773503   0.4928536), wk =   0.0010000
        k(  820) = (   0.8000000   0.5773503   0.5544603), wk =   0.0010000
        k(  821) = (   0.8000000   0.6928203   0.0000000), wk =   0.0010000
        k(  822) = (   0.8000000   0.6928203   0.0616067), wk =   0.0010000
        k(  823) = (   0.8000000   0.6928203   0.1232134), wk =   0.0010000
        k(  824) = (   0.8000000   0.6928203   0.1848201), wk =   0.0010000
        k(  825) = (   0.8000000   0.6928203   0.2464268), wk =   0.0010000
        k(  826) = (   0.8000000   0.6928203   0.3080335), wk =   0.0010000
        k(  827) = (   0.8000000   0.6928203   0.3696402), wk =   0.0010000
        k(  828) = (   0.8000000   0.6928203   0.4312469), wk =   0.0010000
        k(  829) = (   0.8000000   0.6928203   0.4928536), wk =   0.0010000
        k(  830) = (   0.8000000   0.6928203   0.5544603), wk =   0.0010000
        k(  831) = (   0.8000000   0.8082904   0.0000000), wk =   0.0010000
        k(  832) = (   0.8000000   0.8082904   0.0616067), wk =   0.0010000
        k(  833) = (   0.8000000   0.8082904   0.1232134), wk =   0.0010000
        k(  834) = (   0.8000000   0.8082904   0.1848201), wk =   0.0010000
        k(  835) = (   0.8000000   0.8082904   0.2464268), wk =   0.0010000
        k(  836) = (   0.8000000   0.8082904   0.3080335), wk =   0.0010000
        k(  837) = (   0.8000000   0.8082904   0.3696402), wk =   0.0010000
        k(  838) = (   0.8000000   0.8082904   0.4312469), wk =   0.0010000
        k(  839) = (   0.8000000   0.8082904   0.4928536), wk =   0.0010000
        k(  840) = (   0.8000000   0.8082904   0.5544603), wk =   0.0010000
        k(  841) = (   0.8000000   0.9237604   0.0000000), wk =   0.0010000
        k(  842) = (   0.8000000   0.9237604   0.0616067), wk =   0.0010000
        k(  843) = (   0.8000000   0.9237604   0.1232134), wk =   0.0010000
        k(  844) = (   0.8000000   0.9237604   0.1848201), wk =   0.0010000
        k(  845) = (   0.8000000   0.9237604   0.2464268), wk =   0.0010000
        k(  846) = (   0.8000000   0.9237604   0.3080335), wk =   0.0010000
        k(  847) = (   0.8000000   0.9237604   0.3696402), wk =   0.0010000
        k(  848) = (   0.8000000   0.9237604   0.4312469), wk =   0.0010000
        k(  849) = (   0.8000000   0.9237604   0.4928536), wk =   0.0010000
        k(  850) = (   0.8000000   0.9237604   0.5544603), wk =   0.0010000
        k(  851) = (   0.8000000   1.0392305   0.0000000), wk =   0.0010000
        k(  852) = (   0.8000000   1.0392305   0.0616067), wk =   0.0010000
        k(  853) = (   0.8000000   1.0392305   0.1232134), wk =   0.0010000
        k(  854) = (   0.8000000   1.0392305   0.1848201), wk =   0.0010000
        k(  855) = (   0.8000000   1.0392305   0.2464268), wk =   0.0010000
        k(  856) = (   0.8000000   1.0392305   0.3080335), wk =   0.0010000
        k(  857) = (   0.8000000   1.0392305   0.3696402), wk =   0.0010000
        k(  858) = (   0.8000000   1.0392305   0.4312469), wk =   0.0010000
        k(  859) = (   0.8000000   1.0392305   0.4928536), wk =   0.0010000
        k(  860) = (   0.8000000   1.0392305   0.5544603), wk =   0.0010000
        k(  861) = (   0.8000000   1.1547005   0.0000000), wk =   0.0010000
        k(  862) = (   0.8000000   1.1547005   0.0616067), wk =   0.0010000
        k(  863) = (   0.8000000   1.1547005   0.1232134), wk =   0.0010000
        k(  864) = (   0.8000000   1.1547005   0.1848201), wk =   0.0010000
        k(  865) = (   0.8000000   1.1547005   0.2464268), wk =   0.0010000
        k(  866) = (   0.8000000   1.1547005   0.3080335), wk =   0.0010000
        k(  867) = (   0.8000000   1.1547005   0.3696402), wk =   0.0010000
        k(  868) = (   0.8000000   1.1547005   0.4312469), wk =   0.0010000
        k(  869) = (   0.8000000   1.1547005   0.4928536), wk =   0.0010000
        k(  870) = (   0.8000000   1.1547005   0.5544603), wk =   0.0010000
        k(  871) = (   0.8000000   1.2701706   0.0000000), wk =   0.0010000
        k(  872) = (   0.8000000   1.2701706   0.0616067), wk =   0.0010000
        k(  873) = (   0.8000000   1.2701706   0.1232134), wk =   0.0010000
        k(  874) = (   0.8000000   1.2701706   0.1848201), wk =   0.0010000
        k(  875) = (   0.8000000   1.2701706   0.2464268), wk =   0.0010000
        k(  876) = (   0.8000000   1.2701706   0.3080335), wk =   0.0010000
        k(  877) = (   0.8000000   1.2701706   0.3696402), wk =   0.0010000
        k(  878) = (   0.8000000   1.2701706   0.4312469), wk =   0.0010000
        k(  879) = (   0.8000000   1.2701706   0.4928536), wk =   0.0010000
        k(  880) = (   0.8000000   1.2701706   0.5544603), wk =   0.0010000
        k(  881) = (   0.8000000   1.3856406   0.0000000), wk =   0.0010000
        k(  882) = (   0.8000000   1.3856406   0.0616067), wk =   0.0010000
        k(  883) = (   0.8000000   1.3856406   0.1232134), wk =   0.0010000
        k(  884) = (   0.8000000   1.3856406   0.1848201), wk =   0.0010000
        k(  885) = (   0.8000000   1.3856406   0.2464268), wk =   0.0010000
        k(  886) = (   0.8000000   1.3856406   0.3080335), wk =   0.0010000
        k(  887) = (   0.8000000   1.3856406   0.3696402), wk =   0.0010000
        k(  888) = (   0.8000000   1.3856406   0.4312469), wk =   0.0010000
        k(  889) = (   0.8000000   1.3856406   0.4928536), wk =   0.0010000
        k(  890) = (   0.8000000   1.3856406   0.5544603), wk =   0.0010000
        k(  891) = (   0.8000000   1.5011107   0.0000000), wk =   0.0010000
        k(  892) = (   0.8000000   1.5011107   0.0616067), wk =   0.0010000
        k(  893) = (   0.8000000   1.5011107   0.1232134), wk =   0.0010000
        k(  894) = (   0.8000000   1.5011107   0.1848201), wk =   0.0010000
        k(  895) = (   0.8000000   1.5011107   0.2464268), wk =   0.0010000
        k(  896) = (   0.8000000   1.5011107   0.3080335), wk =   0.0010000
        k(  897) = (   0.8000000   1.5011107   0.3696402), wk =   0.0010000
        k(  898) = (   0.8000000   1.5011107   0.4312469), wk =   0.0010000
        k(  899) = (   0.8000000   1.5011107   0.4928536), wk =   0.0010000
        k(  900) = (   0.8000000   1.5011107   0.5544603), wk =   0.0010000
        k(  901) = (   0.9000000   0.5196152   0.0000000), wk =   0.0010000
        k(  902) = (   0.9000000   0.5196152   0.0616067), wk =   0.0010000
        k(  903) = (   0.9000000   0.5196152   0.1232134), wk =   0.0010000
        k(  904) = (   0.9000000   0.5196152   0.1848201), wk =   0.0010000
        k(  905) = (   0.9000000   0.5196152   0.2464268), wk =   0.0010000
        k(  906) = (   0.9000000   0.5196152   0.3080335), wk =   0.0010000
        k(  907) = (   0.9000000   0.5196152   0.3696402), wk =   0.0010000
        k(  908) = (   0.9000000   0.5196152   0.4312469), wk =   0.0010000
        k(  909) = (   0.9000000   0.5196152   0.4928536), wk =   0.0010000
        k(  910) = (   0.9000000   0.5196152   0.5544603), wk =   0.0010000
        k(  911) = (   0.9000000   0.6350853   0.0000000), wk =   0.0010000
        k(  912) = (   0.9000000   0.6350853   0.0616067), wk =   0.0010000
        k(  913) = (   0.9000000   0.6350853   0.1232134), wk =   0.0010000
        k(  914) = (   0.9000000   0.6350853   0.1848201), wk =   0.0010000
        k(  915) = (   0.9000000   0.6350853   0.2464268), wk =   0.0010000
        k(  916) = (   0.9000000   0.6350853   0.3080335), wk =   0.0010000
        k(  917) = (   0.9000000   0.6350853   0.3696402), wk =   0.0010000
        k(  918) = (   0.9000000   0.6350853   0.4312469), wk =   0.0010000
        k(  919) = (   0.9000000   0.6350853   0.4928536), wk =   0.0010000
        k(  920) = (   0.9000000   0.6350853   0.5544603), wk =   0.0010000
        k(  921) = (   0.9000000   0.7505553   0.0000000), wk =   0.0010000
        k(  922) = (   0.9000000   0.7505553   0.0616067), wk =   0.0010000
        k(  923) = (   0.9000000   0.7505553   0.1232134), wk =   0.0010000
        k(  924) = (   0.9000000   0.7505553   0.1848201), wk =   0.0010000
        k(  925) = (   0.9000000   0.7505553   0.2464268), wk =   0.0010000
        k(  926) = (   0.9000000   0.7505553   0.3080335), wk =   0.0010000
        k(  927) = (   0.9000000   0.7505553   0.3696402), wk =   0.0010000
        k(  928) = (   0.9000000   0.7505553   0.4312469), wk =   0.0010000
        k(  929) = (   0.9000000   0.7505553   0.4928536), wk =   0.0010000
        k(  930) = (   0.9000000   0.7505553   0.5544603), wk =   0.0010000
        k(  931) = (   0.9000000   0.8660254   0.0000000), wk =   0.0010000
        k(  932) = (   0.9000000   0.8660254   0.0616067), wk =   0.0010000
        k(  933) = (   0.9000000   0.8660254   0.1232134), wk =   0.0010000
        k(  934) = (   0.9000000   0.8660254   0.1848201), wk =   0.0010000
        k(  935) = (   0.9000000   0.8660254   0.2464268), wk =   0.0010000
        k(  936) = (   0.9000000   0.8660254   0.3080335), wk =   0.0010000
        k(  937) = (   0.9000000   0.8660254   0.3696402), wk =   0.0010000
        k(  938) = (   0.9000000   0.8660254   0.4312469), wk =   0.0010000
        k(  939) = (   0.9000000   0.8660254   0.4928536), wk =   0.0010000
        k(  940) = (   0.9000000   0.8660254   0.5544603), wk =   0.0010000
        k(  941) = (   0.9000000   0.9814955   0.0000000), wk =   0.0010000
        k(  942) = (   0.9000000   0.9814955   0.0616067), wk =   0.0010000
        k(  943) = (   0.9000000   0.9814955   0.1232134), wk =   0.0010000
        k(  944) = (   0.9000000   0.9814955   0.1848201), wk =   0.0010000
        k(  945) = (   0.9000000   0.9814955   0.2464268), wk =   0.0010000
        k(  946) = (   0.9000000   0.9814955   0.3080335), wk =   0.0010000
        k(  947) = (   0.9000000   0.9814955   0.3696402), wk =   0.0010000
        k(  948) = (   0.9000000   0.9814955   0.4312469), wk =   0.0010000
        k(  949) = (   0.9000000   0.9814955   0.4928536), wk =   0.0010000
        k(  950) = (   0.9000000   0.9814955   0.5544603), wk =   0.0010000
        k(  951) = (   0.9000000   1.0969655   0.0000000), wk =   0.0010000
        k(  952) = (   0.9000000   1.0969655   0.0616067), wk =   0.0010000
        k(  953) = (   0.9000000   1.0969655   0.1232134), wk =   0.0010000
        k(  954) = (   0.9000000   1.0969655   0.1848201), wk =   0.0010000
        k(  955) = (   0.9000000   1.0969655   0.2464268), wk =   0.0010000
        k(  956) = (   0.9000000   1.0969655   0.3080335), wk =   0.0010000
        k(  957) = (   0.9000000   1.0969655   0.3696402), wk =   0.0010000
        k(  958) = (   0.9000000   1.0969655   0.4312469), wk =   0.0010000
        k(  959) = (   0.9000000   1.0969655   0.4928536), wk =   0.0010000
        k(  960) = (   0.9000000   1.0969655   0.5544603), wk =   0.0010000
        k(  961) = (   0.9000000   1.2124356   0.0000000), wk =   0.0010000
        k(  962) = (   0.9000000   1.2124356   0.0616067), wk =   0.0010000
        k(  963) = (   0.9000000   1.2124356   0.1232134), wk =   0.0010000
        k(  964) = (   0.9000000   1.2124356   0.1848201), wk =   0.0010000
        k(  965) = (   0.9000000   1.2124356   0.2464268), wk =   0.0010000
        k(  966) = (   0.9000000   1.2124356   0.3080335), wk =   0.0010000
        k(  967) = (   0.9000000   1.2124356   0.3696402), wk =   0.0010000
        k(  968) = (   0.9000000   1.2124356   0.4312469), wk =   0.0010000
        k(  969) = (   0.9000000   1.2124356   0.4928536), wk =   0.0010000
        k(  970) = (   0.9000000   1.2124356   0.5544603), wk =   0.0010000
        k(  971) = (   0.9000000   1.3279056   0.0000000), wk =   0.0010000
        k(  972) = (   0.9000000   1.3279056   0.0616067), wk =   0.0010000
        k(  973) = (   0.9000000   1.3279056   0.1232134), wk =   0.0010000
        k(  974) = (   0.9000000   1.3279056   0.1848201), wk =   0.0010000
        k(  975) = (   0.9000000   1.3279056   0.2464268), wk =   0.0010000
        k(  976) = (   0.9000000   1.3279056   0.3080335), wk =   0.0010000
        k(  977) = (   0.9000000   1.3279056   0.3696402), wk =   0.0010000
        k(  978) = (   0.9000000   1.3279056   0.4312469), wk =   0.0010000
        k(  979) = (   0.9000000   1.3279056   0.4928536), wk =   0.0010000
        k(  980) = (   0.9000000   1.3279056   0.5544603), wk =   0.0010000
        k(  981) = (   0.9000000   1.4433757   0.0000000), wk =   0.0010000
        k(  982) = (   0.9000000   1.4433757   0.0616067), wk =   0.0010000
[...]
     0.0000   0.0000   0.0000   0.0000   0.0000   0.0000   0.0000   0.0000

          k = 0.9000 1.5588 0.1848 (  2150 PWs)   bands (ev):

   -76.0540 -76.0275 -74.6138 -74.5865 -40.3535 -40.3209 -40.0198 -39.8945
   -38.8266 -38.8037 -37.7938 -37.7413 -37.4558 -37.3020 -36.9708 -36.9462
    12.6622  12.7105  14.9848  15.4476  16.2919  16.6557  16.8307  17.2514
    17.3248  17.5851  17.6376  18.1357  18.1888  18.2880  18.5207  18.7572
    18.9000  19.1074  19.3798  19.9515  20.0314  20.1031  20.7519  21.5493
    30.5388  31.0288  37.1423  37.3200  37.8722  38.1434  39.7555  39.8925
    40.3458  40.3937  42.0157  42.2907  44.9674  45.0026  46.3227  46.3504
    49.2041  49.2538  49.3817  49.4725  51.8736  52.1049  53.2355  53.4134
    53.7492  53.7932  55.0918  55.1870  58.0303  58.1333  59.1109  59.1459
    60.7181  60.8766  60.9469  61.2112  61.5682  61.8941  63.5127  63.9158
    64.4821  64.7668  67.9776  68.1643  70.4649  70.7905  71.3635  71.5865
    75.7195  75.9574  75.9958  76.1928  80.2993  80.4908  81.0478  81.4129

     occupation numbers 
     1.0000   1.0000   1.0000   1.0000   1.0000   1.0000   1.0000   1.0000
     1.0000   1.0000   1.0000   1.0000   1.0000   1.0000   1.0000   1.0000
     1.0000   1.0000   1.0000   1.0000   1.0000   1.0000   1.0000   1.0000
     1.0000   1.0000   1.0000   1.0000   1.0000   1.0000   1.0000   1.0001
     1.0019   1.0268   1.0674   0.0391   0.0133   0.0044   0.0000   0.0000
     0.0000   0.0000   0.0000   0.0000   0.0000   0.0000   0.0000   0.0000
     0.0000   0.0000   0.0000   0.0000   0.0000   0.0000   0.0000   0.0000
     0.0000   0.0000   0.0000   0.0000   0.0000   0.0000   0.0000   0.0000
     0.0000   0.0000   0.0000   0.0000   0.0000   0.0000   0.0000   0.0000
     0.0000   0.0000   0.0000   0.0000   0.0000   0.0000   0.0000   0.0000
     0.0000   0.0000   0.0000   0.0000   0.0000   0.0000   0.0000   0.0000
     0.0000   0.0000   0.0000   0.0000   0.0000   0.0000   0.0000   0.0000

          k = 0.9000 1.5588 0.2464 (  2148 PWs)   bands (ev):

   -76.0477 -76.0338 -74.6073 -74.5930 -40.3461 -40.3289 -39.9899 -39.9240
   -38.8211 -38.8091 -37.7819 -37.7542 -37.4198 -37.3390 -36.9645 -36.9514
    13.2608  13.2775  14.5473  14.7380  16.2574  16.5733  16.8053  17.1028
    17.3488  17.4933  17.7396  18.1773  18.3189  18.4387  18.4866  18.6658
    18.7580  19.1224  19.2757  19.3293  20.2408  20.3921  20.6232  21.0949
    32.7604  33.1595  37.4540  37.6768  37.7246  37.7929  38.3298  38.5454
    39.6029  39.7425  40.6968  40.9671  45.3400  45.3659  46.1842  46.2163
    49.1128  49.1682  49.2042  49.2410  53.4679  53.6072  54.0377  54.0518
    55.0131  55.0672  55.1822  55.2452  58.4715  58.6515  58.8589  58.9411
    59.3470  59.4842  60.2461  60.4870  61.7336  61.9549  63.7016  64.0380
    66.6746  66.9474  67.2647  67.4915  68.5482  68.9201  71.4194  71.6683
    72.7028  72.9150  74.7220  74.9399  82.3639  82.5196  84.0103  84.3933

     occupation numbers 
     1.0000   1.0000   1.0000   1.0000   1.0000   1.0000   1.0000   1.0000
     1.0000   1.0000   1.0000   1.0000   1.0000   1.0000   1.0000   1.0000
     1.0000   1.0000   1.0000   1.0000   1.0000   1.0000   1.0000   1.0000
     1.0000   1.0000   1.0000   1.0000   1.0000   1.0000   1.0000   1.0000
     1.0001   1.0307   1.0786   1.0828   0.0004   0.0000   0.0000   0.0000
     0.0000   0.0000   0.0000   0.0000   0.0000   0.0000   0.0000   0.0000
     0.0000   0.0000   0.0000   0.0000   0.0000   0.0000   0.0000   0.0000
     0.0000   0.0000   0.0000   0.0000   0.0000   0.0000   0.0000   0.0000
     0.0000   0.0000   0.0000   0.0000   0.0000   0.0000   0.0000   0.0000
     0.0000   0.0000   0.0000   0.0000   0.0000   0.0000   0.0000   0.0000
     0.0000   0.0000   0.0000   0.0000   0.0000   0.0000   0.0000   0.0000
     0.0000   0.0000   0.0000   0.0000   0.0000   0.0000   0.0000   0.0000

          k = 0.9000 1.5588 0.3080 (  2148 PWs)   bands (ev):

   -76.0408 -76.0408 -74.6002 -74.6002 -40.3380 -40.3371 -39.9574 -39.9563
   -38.8152 -38.8149 -37.7688 -37.7678 -37.3809 -37.3782 -36.9586 -36.9570
    13.9235  13.9238  13.9734  13.9738  16.3794  16.3873  16.9383  16.9453
    17.3941  17.4210  17.9384  17.9484  18.4599  18.4847  18.5735  18.6118
    18.8702  18.8726  19.1799  19.1985  20.4385  20.4403  20.7244  20.7308
    35.1013  35.1038  35.4225  35.4243  38.1848  38.1963  38.3140  38.3300
    39.7646  39.7833  40.0182  40.0417  45.7824  45.7836  45.8071  45.8084
    49.0766  49.0849  49.1615  49.1729  54.3350  54.3501  54.3604  54.3771
    55.6998  55.7042  55.9005  55.9046  57.5330  57.5894  57.7692  57.8267
    59.5925  59.6069  59.7547  59.7682  63.4028  63.4106  63.5535  63.5601
    66.9805  66.9870  67.3741  67.3769  69.4698  69.5044  69.7289  69.7650
    73.0636  73.0837  73.2690  73.2913  84.2761  84.2774  84.4905  84.4913

     occupation numbers 
     1.0000   1.0000   1.0000   1.0000   1.0000   1.0000   1.0000   1.0000
     1.0000   1.0000   1.0000   1.0000   1.0000   1.0000   1.0000   1.0000
     1.0000   1.0000   1.0000   1.0000   1.0000   1.0000   1.0000   1.0000
     1.0000   1.0000   1.0000   1.0000   1.0000   1.0000   1.0000   1.0000
     1.0012   1.0012   1.0488   1.0552   0.0000   0.0000   0.0000   0.0000
     0.0000   0.0000   0.0000   0.0000   0.0000   0.0000   0.0000   0.0000
     0.0000   0.0000   0.0000   0.0000   0.0000   0.0000   0.0000   0.0000
     0.0000   0.0000   0.0000   0.0000   0.0000   0.0000   0.0000   0.0000
     0.0000   0.0000   0.0000   0.0000   0.0000   0.0000   0.0000   0.0000
     0.0000   0.0000   0.0000   0.0000   0.0000   0.0000   0.0000   0.0000
     0.0000   0.0000   0.0000   0.0000   0.0000   0.0000   0.0000   0.0000
     0.0000   0.0000   0.0000   0.0000   0.0000   0.0000   0.0000   0.0000

          k = 0.9000 1.5588 0.3696 (  2148 PWs)   bands (ev):

   -76.0477 -76.0338 -74.6073 -74.5930 -40.3461 -40.3289 -39.9899 -39.9240
   -38.8211 -38.8091 -37.7819 -37.7542 -37.4198 -37.3390 -36.9645 -36.9514
    13.2608  13.2775  14.5473  14.7380  16.2574  16.5733  16.8053  17.1028
    17.3488  17.4933  17.7396  18.1773  18.3189  18.4387  18.4866  18.6658
    18.7580  19.1224  19.2757  19.3293  20.2408  20.3921  20.6232  21.0949
    32.7604  33.1595  37.4540  37.6768  37.7246  37.7929  38.3298  38.5454
    39.6029  39.7425  40.6968  40.9671  45.3400  45.3659  46.1842  46.2163
    49.1128  49.1682  49.2042  49.2410  53.4679  53.6072  54.0377  54.0518
    55.0131  55.0672  55.1822  55.2452  58.4715  58.6515  58.8589  58.9411
    59.3470  59.4842  60.2461  60.4870  61.7336  61.9549  63.7016  64.0380
    66.6746  66.9474  67.2647  67.4915  68.5482  68.9201  71.4194  71.6683
    72.7028  72.9150  74.7220  74.9399  82.3639  82.5196  84.0103  84.3933

     occupation numbers 
     1.0000   1.0000   1.0000   1.0000   1.0000   1.0000   1.0000   1.0000
     1.0000   1.0000   1.0000   1.0000   1.0000   1.0000   1.0000   1.0000
     1.0000   1.0000   1.0000   1.0000   1.0000   1.0000   1.0000   1.0000
     1.0000   1.0000   1.0000   1.0000   1.0000   1.0000   1.0000   1.0000
     1.0001   1.0307   1.0786   1.0828   0.0004   0.0000   0.0000   0.0000
     0.0000   0.0000   0.0000   0.0000   0.0000   0.0000   0.0000   0.0000
     0.0000   0.0000   0.0000   0.0000   0.0000   0.0000   0.0000   0.0000
     0.0000   0.0000   0.0000   0.0000   0.0000   0.0000   0.0000   0.0000
     0.0000   0.0000   0.0000   0.0000   0.0000   0.0000   0.0000   0.0000
     0.0000   0.0000   0.0000   0.0000   0.0000   0.0000   0.0000   0.0000
     0.0000   0.0000   0.0000   0.0000   0.0000   0.0000   0.0000   0.0000
     0.0000   0.0000   0.0000   0.0000   0.0000   0.0000   0.0000   0.0000

          k = 0.9000 1.5588 0.4312 (  2150 PWs)   bands (ev):

   -76.0540 -76.0275 -74.6138 -74.5865 -40.3535 -40.3209 -40.0198 -39.8945
   -38.8266 -38.8037 -37.7938 -37.7413 -37.4558 -37.3020 -36.9708 -36.9462
    12.6622  12.7105  14.9848  15.4476  16.2919  16.6557  16.8307  17.2514
    17.3248  17.5851  17.6376  18.1357  18.1888  18.2880  18.5207  18.7572
    18.9000  19.1074  19.3798  19.9515  20.0314  20.1031  20.7519  21.5493
    30.5388  31.0288  37.1423  37.3200  37.8722  38.1434  39.7555  39.8925
    40.3458  40.3937  42.0157  42.2907  44.9674  45.0026  46.3227  46.3504
    49.2041  49.2538  49.3817  49.4725  51.8736  52.1049  53.2355  53.4134
    53.7492  53.7932  55.0918  55.1870  58.0303  58.1333  59.1109  59.1459
    60.7181  60.8766  60.9469  61.2112  61.5682  61.8941  63.5127  63.9158
    64.4821  64.7668  67.9776  68.1643  70.4649  70.7905  71.3635  71.5865
    75.7195  75.9574  75.9958  76.1928  80.2993  80.4908  81.0478  81.4129

     occupation numbers 
     1.0000   1.0000   1.0000   1.0000   1.0000   1.0000   1.0000   1.0000
     1.0000   1.0000   1.0000   1.0000   1.0000   1.0000   1.0000   1.0000
     1.0000   1.0000   1.0000   1.0000   1.0000   1.0000   1.0000   1.0000
     1.0000   1.0000   1.0000   1.0000   1.0000   1.0000   1.0000   1.0001
     1.0019   1.0268   1.0674   0.0391   0.0133   0.0044   0.0000   0.0000
     0.0000   0.0000   0.0000   0.0000   0.0000   0.0000   0.0000   0.0000
     0.0000   0.0000   0.0000   0.0000   0.0000   0.0000   0.0000   0.0000
     0.0000   0.0000   0.0000   0.0000   0.0000   0.0000   0.0000   0.0000
     0.0000   0.0000   0.0000   0.0000   0.0000   0.0000   0.0000   0.0000
     0.0000   0.0000   0.0000   0.0000   0.0000   0.0000   0.0000   0.0000
     0.0000   0.0000   0.0000   0.0000   0.0000   0.0000   0.0000   0.0000
     0.0000   0.0000   0.0000   0.0000   0.0000   0.0000   0.0000   0.0000

          k = 0.9000 1.5588 0.4929 (  2153 PWs)   bands (ev):

   -76.0590 -76.0225 -74.6189 -74.5814 -40.3593 -40.3145 -40.0437 -39.8711
   -38.8310 -38.7995 -37.8030 -37.7309 -37.4845 -37.2722 -36.9759 -36.9424
    12.2142  12.2774  15.1460  15.9528  16.5106  16.5959  17.0308  17.2928
    17.3879  17.6588  17.6953  17.9621  17.9840  18.2186  18.7628  18.8279
    18.9740  19.1497  19.4614  19.8222  19.8512  20.7964  20.8536  22.1352
    28.5113  29.1186  36.7728  36.9691  37.4402  37.7227  41.3669  41.3705
    41.5857  41.6351  43.8263  44.0611  44.7190  44.7757  45.9800  45.9856
    48.8879  48.9935  49.5238  49.7612  51.1490  51.3252  52.2116  52.3974
    53.2379  53.2600  54.7566  54.8453  55.7606  55.9442  59.3054  59.3783
    60.6224  60.9852  61.2089  61.6148  62.3395  62.4544  64.0686  64.3584
    65.3108  65.6552  67.3794  67.6293  72.3145  72.5742  73.4420  73.6362
    74.8958  75.1285  77.8466  78.1931  78.9386  79.2487  79.4828  79.6694

     occupation numbers 
     1.0000   1.0000   1.0000   1.0000   1.0000   1.0000   1.0000   1.0000
     1.0000   1.0000   1.0000   1.0000   1.0000   1.0000   1.0000   1.0000
     1.0000   1.0000   1.0000   1.0000   1.0000   1.0000   1.0000   1.0000
     1.0000   1.0000   1.0000   1.0000   1.0000   1.0000   1.0002   1.0006
     1.0056   1.0388   0.9845   0.1578   0.1197   0.0000   0.0000   0.0000
     0.0000   0.0000   0.0000   0.0000   0.0000   0.0000   0.0000   0.0000
     0.0000   0.0000   0.0000   0.0000   0.0000   0.0000   0.0000   0.0000
     0.0000   0.0000   0.0000   0.0000   0.0000   0.0000   0.0000   0.0000
     0.0000   0.0000   0.0000   0.0000   0.0000   0.0000   0.0000   0.0000
     0.0000   0.0000   0.0000   0.0000   0.0000   0.0000   0.0000   0.0000
     0.0000   0.0000   0.0000   0.0000   0.0000   0.0000   0.0000   0.0000
     0.0000   0.0000   0.0000   0.0000   0.0000   0.0000   0.0000   0.0000

          k = 0.9000 1.5588 0.5545 (  2146 PWs)   bands (ev):

   -76.0621 -76.0193 -74.6222 -74.5781 -40.3629 -40.3104 -40.0592 -39.8561
   -38.8339 -38.7969 -37.8087 -37.7241 -37.5029 -37.2528 -36.9793 -36.9402
    11.9380  12.0079  15.1635  16.1852  16.5585  16.7555  17.2234  17.2450
    17.4915  17.6156  17.8364  17.8626  17.9025  18.1745  18.8665  18.9493
    19.0033  19.2613  19.4314  19.6403  19.7086  20.8837  21.7869  22.8081
    26.8368  27.5993  36.5453  36.7534  37.1649  37.4509  42.4553  42.5123
    42.9237  42.9303  44.3312  44.3480  45.1406  45.1561  46.0903  46.2687
    48.1520  48.3849  49.1608  49.5640  51.7739  51.8505  51.9874  52.0762
    52.6969  52.7026  53.5483  53.8003  53.9775  54.0474  59.7480  59.7578
    60.4207  60.6774  60.8053  61.0155  61.8368  62.0227  65.7487  66.1157
    66.6139  66.8275  68.6872  68.9729  72.3790  72.5704  73.6735  73.8916
    74.7306  75.0610  76.0946  76.3194  79.1466  79.5438  82.8853  83.0356

     occupation numbers 
     1.0000   1.0000   1.0000   1.0000   1.0000   1.0000   1.0000   1.0000
     1.0000   1.0000   1.0000   1.0000   1.0000   1.0000   1.0000   1.0000
     1.0000   1.0000   1.0000   1.0000   1.0000   1.0000   1.0000   1.0000
     1.0000   1.0000   1.0000   1.0000   1.0000   1.0000   1.0011   1.0040
     1.0083   1.0752   1.0244   0.5634   0.3828   0.0000   0.0000   0.0000
     0.0000   0.0000   0.0000   0.0000   0.0000   0.0000   0.0000   0.0000
     0.0000   0.0000   0.0000   0.0000   0.0000   0.0000   0.0000   0.0000
     0.0000   0.0000   0.0000   0.0000   0.0000   0.0000   0.0000   0.0000
     0.0000   0.0000   0.0000   0.0000   0.0000   0.0000   0.0000   0.0000
     0.0000   0.0000   0.0000   0.0000   0.0000   0.0000   0.0000   0.0000
     0.0000   0.0000   0.0000   0.0000   0.0000   0.0000   0.0000   0.0000
     0.0000   0.0000   0.0000   0.0000   0.0000   0.0000   0.0000   0.0000

     the Fermi energy is    19.7014 ev
     (compare with:    19.7424 eV, computed in scf)

     Writing all to output data dir ./Co.save/
 
     init_run     :      0.09s CPU      0.10s WALL (       1 calls)
     electrons    :    109.41s CPU    110.53s WALL (       1 calls)

     Called by init_run:
     wfcinit      :      0.00s CPU      0.00s WALL (       1 calls)
     wfcinit:wfcr :      3.83s CPU      3.95s WALL (      20 calls)
     potinit      :      0.06s CPU      0.06s WALL (       1 calls)
     hinit0       :      0.01s CPU      0.02s WALL (       1 calls)

     Called by electrons:
     c_bands      :    109.35s CPU    110.42s WALL (       1 calls)
     v_of_rho     :      0.05s CPU      0.06s WALL (       1 calls)
     v_h          :      0.00s CPU      0.00s WALL (       1 calls)
     v_xc         :      0.05s CPU      0.05s WALL (       1 calls)

     Called by c_bands:
     init_us_2    :      0.02s CPU      0.02s WALL (      20 calls)
     init_us_2:cp :      0.02s CPU      0.02s WALL (      20 calls)
     cegterg      :     93.46s CPU     94.20s WALL (      38 calls)

     Called by sum_band:

     Called by *egterg:
     cdiaghg      :      7.60s CPU      7.61s WALL (     580 calls)
     cegterg:over :     10.75s CPU     10.77s WALL (     560 calls)
     cegterg:upda :      6.39s CPU      6.45s WALL (     560 calls)
     cegterg:last :     11.54s CPU     11.57s WALL (     341 calls)
     h_psi        :     59.18s CPU     59.83s WALL (     618 calls)
     g_psi        :      0.26s CPU      0.26s WALL (     560 calls)

     Called by h_psi:
     h_psi:calbec :      2.29s CPU      2.29s WALL (     618 calls)
     vloc_psi     :     54.00s CPU     54.29s WALL (     618 calls)
     add_vuspsi   :      2.61s CPU      2.64s WALL (     618 calls)

     General routines
     calbec       :      2.28s CPU      2.29s WALL (     618 calls)
     fft          :      0.01s CPU      0.01s WALL (      22 calls)
     fftw         :     45.16s CPU     45.40s WALL (  141428 calls)
     davcio       :      0.01s CPU      0.14s WALL (      40 calls)
 
     Parallel routines
 
     PWSCF        :   1m51.85s CPU   2m 6.07s WALL

 
   This run was terminated on:  15:48: 9  20May2023            

=------------------------------------------------------------------------------=
   JOB DONE.
=------------------------------------------------------------------------------=
Warning: ieee_underflow is signaling
Warning: ieee_inexact is signaling
FORTRAN STOP
Warning: ieee_underflow is signaling
Warning: ieee_inexact is signaling
FORTRAN STOP
Warning: ieee_underflow is signaling
Warning: ieee_inexact is signaling
FORTRAN STOP
Warning: ieee_underflow is signaling
Warning: ieee_inexact is signaling
FORTRAN STOP
Warning: ieee_underflow is signaling
Warning: ieee_inexact is signaling
FORTRAN STOP
Warning: ieee_underflow is signaling
Warning: ieee_inexact is signaling
FORTRAN STOP
Warning: ieee_underflow is signaling
Warning: ieee_inexact is signaling
FORTRAN STOP
Warning: ieee_underflow is signaling
Warning: ieee_inexact is signaling
FORTRAN STOP
Warning: ieee_underflow is signaling
Warning: ieee_inexact is signaling
FORTRAN STOP
Warning: ieee_underflow is signaling
Warning: ieee_inexact is signaling
FORTRAN STOP
Warning: ieee_underflow is signaling
Warning: ieee_inexact is signaling
FORTRAN STOP
Warning: ieee_underflow is signaling
Warning: ieee_inexact is signaling
FORTRAN STOP
Warning: ieee_underflow is signaling
Warning: ieee_inexact is signaling
FORTRAN STOP
Warning: ieee_underflow is signaling
Warning: ieee_inexact is signaling
FORTRAN STOP
Warning: ieee_underflow is signaling
Warning: ieee_inexact is signaling
FORTRAN STOP
Warning: ieee_underflow is signaling
Warning: ieee_inexact is signaling
FORTRAN STOP
Warning: ieee_underflow is signaling
Warning: ieee_inexact is signaling
FORTRAN STOP
Warning: ieee_underflow is signaling
Warning: ieee_inexact is signaling
FORTRAN STOP
Warning: ieee_underflow is signaling
Warning: ieee_inexact is signaling
FORTRAN STOP
Warning: ieee_underflow is signaling
Warning: ieee_inexact is signaling
FORTRAN STOP
Warning: ieee_underflow is signaling
Warning: ieee_inexact is signaling
FORTRAN STOP
Warning: ieee_underflow is signaling
Warning: ieee_inexact is signaling
FORTRAN STOP
Warning: ieee_underflow is signaling
Warning: ieee_inexact is signaling
FORTRAN STOP
Warning: ieee_underflow is signaling
Warning: ieee_inexact is signaling
FORTRAN STOP
Warning: ieee_underflow is signaling
Warning: ieee_inexact is signaling
FORTRAN STOP
Warning: ieee_underflow is signaling
Warning: ieee_inexact is signaling
FORTRAN STOP
Warning: ieee_underflow is signaling
Warning: ieee_inexact is signaling
FORTRAN STOP
Warning: ieee_underflow is signaling
Warning: ieee_inexact is signaling
FORTRAN STOP
Warning: ieee_underflow is signaling
Warning: ieee_inexact is signaling
FORTRAN STOP
Warning: ieee_underflow is signaling
Warning: ieee_inexact is signaling
FORTRAN STOP
Warning: ieee_underflow is signaling
Warning: ieee_inexact is signaling
FORTRAN STOP
Warning: ieee_underflow is signaling
Warning: ieee_inexact is signaling
FORTRAN STOP
Warning: ieee_underflow is signaling
Warning: ieee_inexact is signaling
FORTRAN STOP
Warning: ieee_underflow is signaling
Warning: ieee_inexact is signaling
FORTRAN STOP
Warning: ieee_underflow is signaling
Warning: ieee_inexact is signaling
FORTRAN STOP
Warning: ieee_underflow is signaling
Warning: ieee_inexact is signaling
FORTRAN STOP
Warning: ieee_underflow is signaling
Warning: ieee_inexact is signaling
FORTRAN STOP
Warning: ieee_underflow is signaling
Warning: ieee_inexact is signaling
FORTRAN STOP
Warning: ieee_underflow is signaling
Warning: ieee_inexact is signaling
FORTRAN STOP
Warning: ieee_underflow is signaling
Warning: ieee_inexact is signaling
FORTRAN STOP
Warning: ieee_underflow is signaling
Warning: ieee_inexact is signaling
FORTRAN STOP
Warning: ieee_underflow is signaling
Warning: ieee_inexact is signaling
FORTRAN STOP
Warning: ieee_underflow is signaling
Warning: ieee_inexact is signaling
FORTRAN STOP
Warning: ieee_underflow is signaling
Warning: ieee_inexact is signaling
FORTRAN STOP
Warning: ieee_underflow is signaling
Warning: ieee_inexact is signaling
FORTRAN STOP
Warning: ieee_underflow is signaling
Warning: ieee_inexact is signaling
FORTRAN STOP
Warning: ieee_underflow is signaling
Warning: ieee_inexact is signaling
FORTRAN STOP
Warning: ieee_underflow is signaling
Warning: ieee_inexact is signaling
FORTRAN STOP
Warning: ieee_underflow is signaling
Warning: ieee_inexact is signaling
FORTRAN STOP
Warning: ieee_underflow is signaling
Warning: ieee_inexact is signaling
FORTRAN STOP
