
     Program PWSCF v.7.1 starts on 18May2023 at 22:31:34 

     This program is part of the open-source Quantum ESPRESSO suite
     for quantum simulation of materials; please cite
         "P. Giannozzi et al., J. Phys.:Condens. Matter 21 395502 (2009);
         "P. Giannozzi et al., J. Phys.:Condens. Matter 29 465901 (2017);
         "P. Giannozzi et al., J. Chem. Phys. 152 154105 (2020);
          URL http://www.quantum-espresso.org", 
     in publications or presentations arising from this work. More details at
     http://www.quantum-espresso.org/quote

     Parallel version (MPI & OpenMP), running on      16 processor cores
     Number of MPI processes:                16
     Threads/MPI process:                     1

     MPI processes distributed on     1 nodes
     47307 MiB available memory on the printing compute node when the environment starts
 
     Reading input from Ni.scf.in
     Message from routine read_cards :
     DEPRECATED: no units specified in ATOMIC_POSITIONS card
     Message from routine read_cards :
     ATOMIC_POSITIONS: units set to alat

     Current dimensions of program PWSCF are:
     Max number of different atomic species (ntypx) = 10
     Max number of k-points (npk) =  40000
     Max angular momentum in pseudopotentials (lmaxx) =  4
Error reading attribute index: expected integer, found *

     Fixed quantization axis for GGA:    -0.000000   -0.000000   -1.000000
 
     K-points division:     npool     =      16
     Subspace diagonalization in iterative solution of the eigenvalue problem:
     a serial algorithm will be used

 
     G-vector sticks info
     --------------------
     sticks:   dense  smooth     PW     G-vecs:    dense   smooth      PW
     Sum         499     499    163                 7239     7239    1363
 
     Using Slab Decomposition
 


     bravais-lattice index     =            2
     lattice parameter (alat)  =       6.6698  a.u.
     unit-cell volume          =      74.1786 (a.u.)^3
     number of atoms/cell      =            1
     number of atomic types    =            1
     number of electrons       =        18.00
     number of Kohn-Sham states=           26
     kinetic-energy cutoff     =      80.0000  Ry
     charge density cutoff     =     320.0000  Ry
     scf convergence threshold =      1.0E-10
     mixing beta               =       0.7000
     number of iterations used =            8  plain     mixing
     Exchange-correlation= PBE
                           (   1   4   3   4   0   0   0)
     Noncollinear calculation with spin-orbit


     celldm(1)=   6.669800  celldm(2)=   0.000000  celldm(3)=   0.000000
     celldm(4)=   0.000000  celldm(5)=   0.000000  celldm(6)=   0.000000

     crystal axes: (cart. coord. in units of alat)
               a(1) = (  -0.500000   0.000000   0.500000 )  
               a(2) = (   0.000000   0.500000   0.500000 )  
               a(3) = (  -0.500000   0.500000   0.000000 )  

     reciprocal axes: (cart. coord. in units 2 pi/alat)
               b(1) = ( -1.000000 -1.000000  1.000000 )  
               b(2) = (  1.000000  1.000000  1.000000 )  
               b(3) = ( -1.000000  1.000000 -1.000000 )  


     PseudoPot. # 1 for Ni read from file:
     ./Ni_ONCV_PBE_FR-1.0.upf
     MD5 check sum: d107c106c2ac8cd59c8ac74eabc4ef63
     Pseudo is Norm-conserving, Zval = 18.0
     Generated using ONCVPSP code by D. R. Hamann
     Using radial grid of  602 points, 10 beta functions with: 
                l(1) =   0
                l(2) =   0
                l(3) =   1
                l(4) =   1
                l(5) =   1
                l(6) =   1
                l(7) =   2
                l(8) =   2
                l(9) =   2
               l(10) =   2

     atomic species   valence    mass     pseudopotential
        Ni            18.00    58.69340     Ni( 1.00)

     16 Sym. Ops., with inversion, found


                                    s                        frac. trans.

      isym =  1     identity                                     

 Time Reversal             0
 cryst.   s( 1) = (     1          0          0      )
                  (     0          1          0      )
                  (     0          0          1      )

 cart.    s( 1) = (  1.0000000  0.0000000  0.0000000 )
                  (  0.0000000  1.0000000  0.0000000 )
                  (  0.0000000  0.0000000  1.0000000 )


      isym =  2     180 deg rotation - cart. axis [0,0,1]        

 Time Reversal             0
 cryst.   s( 2) = (     0          1         -1      )
                  (     1          0         -1      )
                  (     0          0         -1      )

 cart.    s( 2) = ( -1.0000000  0.0000000  0.0000000 )
                  (  0.0000000 -1.0000000  0.0000000 )
                  (  0.0000000  0.0000000  1.0000000 )


      isym =  3     180 deg rotation - cart. axis [0,1,0]        

 Time Reversal             1
 cryst.   s( 3) = (    -1          0          0      )
                  (    -1          0          1      )
                  (    -1          1          0      )

 cart.    s( 3) = ( -1.0000000  0.0000000  0.0000000 )
                  (  0.0000000  1.0000000  0.0000000 )
                  (  0.0000000  0.0000000 -1.0000000 )


      isym =  4     180 deg rotation - cart. axis [1,0,0]        

 Time Reversal             1
 cryst.   s( 4) = (     0         -1          1      )
                  (     0         -1          0      )
                  (     1         -1          0      )

 cart.    s( 4) = (  1.0000000  0.0000000  0.0000000 )
                  (  0.0000000 -1.0000000  0.0000000 )
                  (  0.0000000  0.0000000 -1.0000000 )


      isym =  5     180 deg rotation - cart. axis [1,1,0]        

 Time Reversal             1
 cryst.   s( 5) = (     0         -1          0      )
                  (    -1          0          0      )
                  (     0          0         -1      )

 cart.    s( 5) = (  0.0000000  1.0000000  0.0000000 )
                  (  1.0000000  0.0000000  0.0000000 )
                  (  0.0000000  0.0000000 -1.0000000 )


      isym =  6     180 deg rotation - cart. axis [1,-1,0]       

 Time Reversal             1
 cryst.   s( 6) = (    -1          0          1      )
                  (     0         -1          1      )
                  (     0          0          1      )

 cart.    s( 6) = (  0.0000000 -1.0000000  0.0000000 )
                  ( -1.0000000  0.0000000  0.0000000 )
                  (  0.0000000  0.0000000 -1.0000000 )


      isym =  7      90 deg rotation - cart. axis [0,0,-1]       

 Time Reversal             0
 cryst.   s( 7) = (     0          1          0      )
                  (     0          1         -1      )
                  (    -1          1          0      )

 cart.    s( 7) = (  0.0000000  1.0000000  0.0000000 )
                  ( -1.0000000  0.0000000  0.0000000 )
                  (  0.0000000  0.0000000  1.0000000 )


      isym =  8      90 deg rotation - cart. axis [0,0,1]        

 Time Reversal             0
 cryst.   s( 8) = (     1          0         -1      )
                  (     1          0          0      )
                  (     1         -1          0      )

 cart.    s( 8) = (  0.0000000 -1.0000000  0.0000000 )
                  (  1.0000000  0.0000000  0.0000000 )
                  (  0.0000000  0.0000000  1.0000000 )


      isym =  9     inversion                                    

 Time Reversal             0
 cryst.   s( 9) = (    -1          0          0      )
                  (     0         -1          0      )
                  (     0          0         -1      )

 cart.    s( 9) = ( -1.0000000  0.0000000  0.0000000 )
                  (  0.0000000 -1.0000000  0.0000000 )
                  (  0.0000000  0.0000000 -1.0000000 )


      isym = 10     inv. 180 deg rotation - cart. axis [0,0,1]   

 Time Reversal             0
 cryst.   s(10) = (     0         -1          1      )
                  (    -1          0          1      )
                  (     0          0          1      )

 cart.    s(10) = (  1.0000000  0.0000000  0.0000000 )
                  (  0.0000000  1.0000000  0.0000000 )
                  (  0.0000000  0.0000000 -1.0000000 )


      isym = 11     inv. 180 deg rotation - cart. axis [0,1,0]   

 Time Reversal             1
 cryst.   s(11) = (     1          0          0      )
                  (     1          0         -1      )
                  (     1         -1          0      )

 cart.    s(11) = (  1.0000000  0.0000000  0.0000000 )
                  (  0.0000000 -1.0000000  0.0000000 )
                  (  0.0000000  0.0000000  1.0000000 )


      isym = 12     inv. 180 deg rotation - cart. axis [1,0,0]   

 Time Reversal             1
 cryst.   s(12) = (     0          1         -1      )
                  (     0          1          0      )
                  (    -1          1          0      )

 cart.    s(12) = ( -1.0000000  0.0000000  0.0000000 )
                  (  0.0000000  1.0000000  0.0000000 )
                  (  0.0000000  0.0000000  1.0000000 )


      isym = 13     inv. 180 deg rotation - cart. axis [1,1,0]   

 Time Reversal             1
 cryst.   s(13) = (     0          1          0      )
                  (     1          0          0      )
                  (     0          0          1      )

 cart.    s(13) = (  0.0000000 -1.0000000  0.0000000 )
                  ( -1.0000000  0.0000000  0.0000000 )
                  (  0.0000000  0.0000000  1.0000000 )


      isym = 14     inv. 180 deg rotation - cart. axis [1,-1,0]  

 Time Reversal             1
 cryst.   s(14) = (     1          0         -1      )
                  (     0          1         -1      )
                  (     0          0         -1      )

 cart.    s(14) = (  0.0000000  1.0000000  0.0000000 )
                  (  1.0000000  0.0000000  0.0000000 )
                  (  0.0000000  0.0000000  1.0000000 )


      isym = 15     inv.  90 deg rotation - cart. axis [0,0,-1]  

 Time Reversal             0
 cryst.   s(15) = (     0         -1          0      )
                  (     0         -1          1      )
                  (     1         -1          0      )

 cart.    s(15) = (  0.0000000 -1.0000000  0.0000000 )
                  (  1.0000000  0.0000000  0.0000000 )
                  (  0.0000000  0.0000000 -1.0000000 )


      isym = 16     inv.  90 deg rotation - cart. axis [0,0,1]   

 Time Reversal             0
 cryst.   s(16) = (    -1          0          1      )
                  (    -1          0          0      )
                  (    -1          1          0      )

 cart.    s(16) = (  0.0000000  1.0000000  0.0000000 )
                  ( -1.0000000  0.0000000  0.0000000 )
                  (  0.0000000  0.0000000 -1.0000000 )


     the magnetic double point group is D_4h(4/mmm) [C_4h (4/m) ]
     using the double point group C_4h (4/m) 
     there are 16 classes and  8 irreducible representations
     the character table:

       E     -E    C4    -C4   C2    -C2   C4^3  -C4^3 i     -i    S4^3  -S4^3
                                                                              
G_5+   1.00 -1.00  0.71 -0.71  0.00  0.00  0.71 -0.71  1.00 -1.00  0.71 -0.71
G_6+   1.00 -1.00  0.71 -0.71  0.00  0.00  0.71 -0.71  1.00 -1.00  0.71 -0.71
G_7+   1.00 -1.00 -0.71  0.71  0.00  0.00 -0.71  0.71  1.00 -1.00 -0.71  0.71
G_8+   1.00 -1.00 -0.71  0.71  0.00  0.00 -0.71  0.71  1.00 -1.00 -0.71  0.71
G_5-   1.00 -1.00  0.71 -0.71  0.00  0.00  0.71 -0.71 -1.00  1.00 -0.71  0.71
G_6-   1.00 -1.00  0.71 -0.71  0.00  0.00  0.71 -0.71 -1.00  1.00 -0.71  0.71
G_7-   1.00 -1.00 -0.71  0.71  0.00  0.00 -0.71  0.71 -1.00  1.00  0.71 -0.71
G_8-   1.00 -1.00 -0.71  0.71  0.00  0.00 -0.71  0.71 -1.00  1.00  0.71 -0.71

       s_h   -s_h  S4    -S4  
                              
G_5+   0.00  0.00  0.71 -0.71
G_6+   0.00  0.00  0.71 -0.71
G_7+   0.00  0.00 -0.71  0.71
G_8+   0.00  0.00 -0.71  0.71
G_5-   0.00  0.00 -0.71  0.71
G_6-   0.00  0.00 -0.71  0.71
G_7-   0.00  0.00  0.71 -0.71
G_8-   0.00  0.00  0.71 -0.71

     imaginary part

       E     -E    C4    -C4   C2    -C2   C4^3  -C4^3 i     -i    S4^3  -S4^3
                                                                              
G_5+   0.00  0.00  0.71 -0.71  1.00 -1.00 -0.71  0.71  0.00  0.00  0.71 -0.71
G_6+   0.00  0.00 -0.71  0.71 -1.00  1.00  0.71 -0.71  0.00  0.00 -0.71  0.71
G_7+   0.00  0.00 -0.71  0.71  1.00 -1.00  0.71 -0.71  0.00  0.00 -0.71  0.71
G_8+   0.00  0.00  0.71 -0.71 -1.00  1.00 -0.71  0.71  0.00  0.00  0.71 -0.71
G_5-   0.00  0.00  0.71 -0.71  1.00 -1.00 -0.71  0.71  0.00  0.00 -0.71  0.71
G_6-   0.00  0.00 -0.71  0.71 -1.00  1.00  0.71 -0.71  0.00  0.00  0.71 -0.71
G_7-   0.00  0.00 -0.71  0.71  1.00 -1.00  0.71 -0.71  0.00  0.00  0.71 -0.71
G_8-   0.00  0.00  0.71 -0.71 -1.00  1.00 -0.71  0.71  0.00  0.00 -0.71  0.71

       s_h   -s_h  S4    -S4  
                              
G_5+   1.00 -1.00 -0.71  0.71
G_6+  -1.00  1.00  0.71 -0.71
G_7+   1.00 -1.00  0.71 -0.71
G_8+  -1.00  1.00 -0.71  0.71
G_5-  -1.00  1.00  0.71 -0.71
G_6-   1.00 -1.00 -0.71  0.71
G_7-  -1.00  1.00 -0.71  0.71
G_8-   1.00 -1.00  0.71 -0.71

     the symmetry operations in each class and the name of the first element:

     E             1
          identity                                               
     -E           -1
          identity E                                             
     C4            4
           90 deg rotation - cart. axis [0,0,1]                  
     -C4          -4
           90 deg rotation - cart. axis [0,0,1] E                
     C2            2
          180 deg rotation - cart. axis [0,0,1]                  
     -C2          -2
          180 deg rotation - cart. axis [0,0,1] E                
     C4^3          3
           90 deg rotation - cart. axis [0,0,-1]                 
     -C4^3        -3
           90 deg rotation - cart. axis [0,0,-1] E               
     i             5
          inversion                                              
     -i           -5
          inversion E                                            
     S4^3          8
          inv.  90 deg rotation - cart. axis [0,0,1]             
     -S4^3        -8
          inv.  90 deg rotation - cart. axis [0,0,1] E           
     s_h           6
          inv. 180 deg rotation - cart. axis [0,0,1]             
     -s_h         -6
          inv. 180 deg rotation - cart. axis [0,0,1] E           
     S4            7
          inv.  90 deg rotation - cart. axis [0,0,-1]            
     -S4          -7
          inv.  90 deg rotation - cart. axis [0,0,-1] E          

   Cartesian axes

     site n.     atom                  positions (alat units)
         1           Ni  tau(   1) = (   0.0000000   0.0000000   0.0000000  )

   Crystallographic axes

     site n.     atom                  positions (cryst. coord.)
         1           Ni  tau(   1) = (  0.0000000  0.0000000  0.0000000  )

     number of k points=   349  Marzari-Vanderbilt smearing, width (Ry)=  0.0200
                       cart. coord. in units 2pi/alat
        k(    1) = (   0.0000000   0.0000000   0.0000000), wk =   0.0002441
        k(    2) = (  -0.0625000   0.0625000  -0.0625000), wk =   0.0019531
        k(    3) = (  -0.1250000   0.1250000  -0.1250000), wk =   0.0019531
        k(    4) = (  -0.1875000   0.1875000  -0.1875000), wk =   0.0019531
        k(    5) = (  -0.2500000   0.2500000  -0.2500000), wk =   0.0019531
        k(    6) = (  -0.3125000   0.3125000  -0.3125000), wk =   0.0019531
        k(    7) = (  -0.3750000   0.3750000  -0.3750000), wk =   0.0019531
        k(    8) = (  -0.4375000   0.4375000  -0.4375000), wk =   0.0019531
        k(    9) = (   0.5000000  -0.5000000   0.5000000), wk =   0.0009766
        k(   10) = (   0.0000000   0.1250000   0.0000000), wk =   0.0009766
        k(   11) = (  -0.0625000   0.1875000  -0.0625000), wk =   0.0039063
        k(   12) = (  -0.1250000   0.2500000  -0.1250000), wk =   0.0039063
        k(   13) = (  -0.1875000   0.3125000  -0.1875000), wk =   0.0039063
        k(   14) = (  -0.2500000   0.3750000  -0.2500000), wk =   0.0039063
        k(   15) = (  -0.3125000   0.4375000  -0.3125000), wk =   0.0039063
        k(   16) = (  -0.3750000   0.5000000  -0.3750000), wk =   0.0039063
        k(   17) = (   0.5625000  -0.4375000   0.5625000), wk =   0.0039063
        k(   18) = (   0.5000000  -0.3750000   0.5000000), wk =   0.0039063
        k(   19) = (   0.4375000  -0.3125000   0.4375000), wk =   0.0039063
        k(   20) = (   0.3750000  -0.2500000   0.3750000), wk =   0.0039063
        k(   21) = (   0.3125000  -0.1875000   0.3125000), wk =   0.0039063
        k(   22) = (   0.2500000  -0.1250000   0.2500000), wk =   0.0039063
        k(   23) = (   0.1875000  -0.0625000   0.1875000), wk =   0.0039063
        k(   24) = (   0.1250000   0.0000000   0.1250000), wk =   0.0019531
        k(   25) = (   0.0000000   0.2500000   0.0000000), wk =   0.0009766
        k(   26) = (  -0.0625000   0.3125000  -0.0625000), wk =   0.0039063
        k(   27) = (  -0.1250000   0.3750000  -0.1250000), wk =   0.0039063
        k(   28) = (  -0.1875000   0.4375000  -0.1875000), wk =   0.0039063
        k(   29) = (  -0.2500000   0.5000000  -0.2500000), wk =   0.0039063
        k(   30) = (  -0.3125000   0.5625000  -0.3125000), wk =   0.0039063
        k(   31) = (   0.6250000  -0.3750000   0.6250000), wk =   0.0039063
        k(   32) = (   0.5625000  -0.3125000   0.5625000), wk =   0.0039063
        k(   33) = (   0.5000000  -0.2500000   0.5000000), wk =   0.0039063
        k(   34) = (   0.4375000  -0.1875000   0.4375000), wk =   0.0039063
        k(   35) = (   0.3750000  -0.1250000   0.3750000), wk =   0.0039063
        k(   36) = (   0.3125000  -0.0625000   0.3125000), wk =   0.0039063
        k(   37) = (   0.2500000   0.0000000   0.2500000), wk =   0.0019531
        k(   38) = (   0.0000000   0.3750000   0.0000000), wk =   0.0009766
        k(   39) = (  -0.0625000   0.4375000  -0.0625000), wk =   0.0039063
        k(   40) = (  -0.1250000   0.5000000  -0.1250000), wk =   0.0039063
        k(   41) = (  -0.1875000   0.5625000  -0.1875000), wk =   0.0039063
        k(   42) = (  -0.2500000   0.6250000  -0.2500000), wk =   0.0039063
        k(   43) = (   0.6875000  -0.3125000   0.6875000), wk =   0.0039063
        k(   44) = (   0.6250000  -0.2500000   0.6250000), wk =   0.0039063
        k(   45) = (   0.5625000  -0.1875000   0.5625000), wk =   0.0039063
        k(   46) = (   0.5000000  -0.1250000   0.5000000), wk =   0.0039063
        k(   47) = (   0.4375000  -0.0625000   0.4375000), wk =   0.0039063
        k(   48) = (   0.3750000   0.0000000   0.3750000), wk =   0.0019531
        k(   49) = (   0.0000000   0.5000000   0.0000000), wk =   0.0009766
        k(   50) = (  -0.0625000   0.5625000  -0.0625000), wk =   0.0039063
        k(   51) = (  -0.1250000   0.6250000  -0.1250000), wk =   0.0039063
        k(   52) = (  -0.1875000   0.6875000  -0.1875000), wk =   0.0039063
        k(   53) = (   0.7500000  -0.2500000   0.7500000), wk =   0.0039063
        k(   54) = (   0.6875000  -0.1875000   0.6875000), wk =   0.0039063
        k(   55) = (   0.6250000  -0.1250000   0.6250000), wk =   0.0039063
        k(   56) = (   0.5625000  -0.0625000   0.5625000), wk =   0.0039063
        k(   57) = (   0.5000000   0.0000000   0.5000000), wk =   0.0019531
        k(   58) = (   0.0000000   0.6250000   0.0000000), wk =   0.0009766
        k(   59) = (  -0.0625000   0.6875000  -0.0625000), wk =   0.0039063
        k(   60) = (  -0.1250000   0.7500000  -0.1250000), wk =   0.0039063
        k(   61) = (   0.8125000  -0.1875000   0.8125000), wk =   0.0039063
        k(   62) = (   0.7500000  -0.1250000   0.7500000), wk =   0.0039063
        k(   63) = (   0.6875000  -0.0625000   0.6875000), wk =   0.0039063
        k(   64) = (   0.6250000   0.0000000   0.6250000), wk =   0.0019531
        k(   65) = (   0.0000000   0.7500000   0.0000000), wk =   0.0009766
        k(   66) = (  -0.0625000   0.8125000  -0.0625000), wk =   0.0039063
        k(   67) = (   0.8750000  -0.1250000   0.8750000), wk =   0.0039063
        k(   68) = (   0.8125000  -0.0625000   0.8125000), wk =   0.0039063
        k(   69) = (   0.7500000   0.0000000   0.7500000), wk =   0.0019531
        k(   70) = (   0.0000000   0.8750000   0.0000000), wk =   0.0009766
        k(   71) = (   0.9375000  -0.0625000   0.9375000), wk =   0.0039063
        k(   72) = (   0.8750000   0.0000000   0.8750000), wk =   0.0019531
        k(   73) = (   0.0000000  -1.0000000   0.0000000), wk =   0.0004883
        k(   74) = (  -0.1250000   0.2500000   0.0000000), wk =   0.0019531
        k(   75) = (  -0.1875000   0.3125000  -0.0625000), wk =   0.0039063
        k(   76) = (  -0.2500000   0.3750000  -0.1250000), wk =   0.0039063
        k(   77) = (  -0.3125000   0.4375000  -0.1875000), wk =   0.0039063
        k(   78) = (  -0.3750000   0.5000000  -0.2500000), wk =   0.0039063
        k(   79) = (   0.5625000  -0.4375000   0.6875000), wk =   0.0039063
        k(   80) = (   0.5000000  -0.3750000   0.6250000), wk =   0.0039063
        k(   81) = (  -0.1250000   0.3750000   0.0000000), wk =   0.0019531
        k(   82) = (  -0.1875000   0.4375000  -0.0625000), wk =   0.0039063
        k(   83) = (  -0.2500000   0.5000000  -0.1250000), wk =   0.0039063
        k(   84) = (  -0.3125000   0.5625000  -0.1875000), wk =   0.0039063
        k(   85) = (   0.6250000  -0.3750000   0.7500000), wk =   0.0039063
        k(   86) = (   0.5625000  -0.3125000   0.6875000), wk =   0.0039063
        k(   87) = (   0.5000000  -0.2500000   0.6250000), wk =   0.0039063
        k(   88) = (   0.4375000  -0.1875000   0.5625000), wk =   0.0039063
        k(   89) = (   0.3750000  -0.1250000   0.5000000), wk =   0.0039063
        k(   90) = (   0.3125000  -0.0625000   0.4375000), wk =   0.0039063
        k(   91) = (   0.2500000   0.0000000   0.3750000), wk =   0.0019531
        k(   92) = (  -0.1250000   0.5000000   0.0000000), wk =   0.0019531
        k(   93) = (  -0.1875000   0.5625000  -0.0625000), wk =   0.0039063
        k(   94) = (  -0.2500000   0.6250000  -0.1250000), wk =   0.0039063
        k(   95) = (   0.6875000  -0.3125000   0.8125000), wk =   0.0039063
        k(   96) = (   0.6250000  -0.2500000   0.7500000), wk =   0.0039063
        k(   97) = (   0.5625000  -0.1875000   0.6875000), wk =   0.0039063
        k(   98) = (   0.5000000  -0.1250000   0.6250000), wk =   0.0039063
        k(   99) = (   0.4375000  -0.0625000   0.5625000), wk =   0.0039063
        k(  100) = (   0.3750000   0.0000000   0.5000000), wk =   0.0019531
        k(  101) = (  -0.1250000   0.6250000   0.0000000), wk =   0.0019531
        k(  102) = (  -0.1875000   0.6875000  -0.0625000), wk =   0.0039063
        k(  103) = (   0.7500000  -0.2500000   0.8750000), wk =   0.0039063
        k(  104) = (   0.6875000  -0.1875000   0.8125000), wk =   0.0039063
        k(  105) = (   0.6250000  -0.1250000   0.7500000), wk =   0.0039063
        k(  106) = (   0.5625000  -0.0625000   0.6875000), wk =   0.0039063
        k(  107) = (   0.5000000   0.0000000   0.6250000), wk =   0.0019531
        k(  108) = (  -0.1250000   0.7500000   0.0000000), wk =   0.0019531
        k(  109) = (   0.8125000  -0.1875000   0.9375000), wk =   0.0039063
        k(  110) = (   0.7500000  -0.1250000   0.8750000), wk =   0.0039063
        k(  111) = (   0.6875000  -0.0625000   0.8125000), wk =   0.0039063
        k(  112) = (   0.6250000   0.0000000   0.7500000), wk =   0.0019531
        k(  113) = (   0.8750000  -0.1250000   1.0000000), wk =   0.0019531
        k(  114) = (   0.8125000  -0.0625000   0.9375000), wk =   0.0039063
        k(  115) = (   0.7500000   0.0000000   0.8750000), wk =   0.0019531
        k(  116) = (  -0.1250000  -1.0000000   0.0000000), wk =   0.0009766
        k(  117) = (  -0.2500000   0.5000000   0.0000000), wk =   0.0019531
        k(  118) = (  -0.3125000   0.5625000  -0.0625000), wk =   0.0039063
        k(  119) = (   0.6250000  -0.3750000   0.8750000), wk =   0.0039063
        k(  120) = (   0.5625000  -0.3125000   0.8125000), wk =   0.0039063
        k(  121) = (   0.5000000  -0.2500000   0.7500000), wk =   0.0039063
        k(  122) = (  -0.2500000   0.6250000   0.0000000), wk =   0.0019531
        k(  123) = (   0.6875000  -0.3125000   0.9375000), wk =   0.0039063
        k(  124) = (   0.6250000  -0.2500000   0.8750000), wk =   0.0039063
        k(  125) = (   0.5625000  -0.1875000   0.8125000), wk =   0.0039063
        k(  126) = (   0.5000000  -0.1250000   0.7500000), wk =   0.0039063
        k(  127) = (   0.4375000  -0.0625000   0.6875000), wk =   0.0039063
        k(  128) = (   0.3750000   0.0000000   0.6250000), wk =   0.0019531
        k(  129) = (   0.7500000  -0.2500000   1.0000000), wk =   0.0019531
        k(  130) = (   0.6875000  -0.1875000   0.9375000), wk =   0.0039063
        k(  131) = (   0.6250000  -0.1250000   0.8750000), wk =   0.0039063
        k(  132) = (   0.5625000  -0.0625000   0.8125000), wk =   0.0039063
        k(  133) = (   0.5000000   0.0000000   0.7500000), wk =   0.0019531
        k(  134) = (   0.7500000  -0.1250000   1.0000000), wk =   0.0019531
        k(  135) = (   0.6875000  -0.0625000   0.9375000), wk =   0.0039063
        k(  136) = (   0.6250000   0.0000000   0.8750000), wk =   0.0019531
        k(  137) = (  -0.2500000  -1.0000000   0.0000000), wk =   0.0009766
        k(  138) = (   0.6250000  -0.2500000   1.0000000), wk =   0.0019531
        k(  139) = (   0.5625000  -0.1875000   0.9375000), wk =   0.0039063
        k(  140) = (   0.5000000  -0.1250000   0.8750000), wk =   0.0039063
        k(  141) = (   0.6250000  -0.1250000   1.0000000), wk =   0.0019531
        k(  142) = (   0.5625000  -0.0625000   0.9375000), wk =   0.0039063
        k(  143) = (   0.5000000   0.0000000   0.8750000), wk =   0.0019531
        k(  144) = (  -0.3750000  -1.0000000   0.0000000), wk =   0.0009766
        k(  145) = (  -0.5000000  -1.0000000   0.0000000), wk =   0.0009766
        k(  146) = (   0.0000000   0.0000000   0.1250000), wk =   0.0004883
        k(  147) = (  -0.0625000  -0.0625000   0.1875000), wk =   0.0019531
        k(  148) = (  -0.1250000  -0.1250000   0.2500000), wk =   0.0019531
        k(  149) = (  -0.1875000  -0.1875000   0.3125000), wk =   0.0019531
        k(  150) = (  -0.2500000  -0.2500000   0.3750000), wk =   0.0019531
        k(  151) = (  -0.3125000  -0.3125000   0.4375000), wk =   0.0019531
        k(  152) = (  -0.3750000  -0.3750000   0.5000000), wk =   0.0019531
        k(  153) = (   0.5625000   0.5625000  -0.4375000), wk =   0.0019531
        k(  154) = (   0.5000000   0.5000000  -0.3750000), wk =   0.0019531
        k(  155) = (   0.4375000   0.4375000  -0.3125000), wk =   0.0019531
        k(  156) = (   0.3750000   0.3750000  -0.2500000), wk =   0.0019531
        k(  157) = (   0.3125000   0.3125000  -0.1875000), wk =   0.0019531
        k(  158) = (   0.2500000   0.2500000  -0.1250000), wk =   0.0019531
        k(  159) = (   0.1875000   0.1875000  -0.0625000), wk =   0.0019531
        k(  160) = (   0.1250000   0.1250000   0.0000000), wk =   0.0009766
        k(  161) = (   0.0000000   0.0000000   0.2500000), wk =   0.0004883
        k(  162) = (  -0.0625000  -0.0625000   0.3125000), wk =   0.0019531
        k(  163) = (  -0.1250000  -0.1250000   0.3750000), wk =   0.0019531
        k(  164) = (  -0.1875000  -0.1875000   0.4375000), wk =   0.0019531
        k(  165) = (  -0.2500000  -0.2500000   0.5000000), wk =   0.0019531
        k(  166) = (  -0.3125000  -0.3125000   0.5625000), wk =   0.0019531
        k(  167) = (   0.6250000   0.6250000  -0.3750000), wk =   0.0019531
        k(  168) = (   0.5625000   0.5625000  -0.3125000), wk =   0.0019531
        k(  169) = (   0.5000000   0.5000000  -0.2500000), wk =   0.0019531
        k(  170) = (   0.4375000   0.4375000  -0.1875000), wk =   0.0019531
        k(  171) = (   0.3750000   0.3750000  -0.1250000), wk =   0.0019531
        k(  172) = (   0.3125000   0.3125000  -0.0625000), wk =   0.0019531
        k(  173) = (   0.2500000   0.2500000   0.0000000), wk =   0.0009766
        k(  174) = (   0.0000000   0.0000000   0.3750000), wk =   0.0004883
        k(  175) = (  -0.0625000  -0.0625000   0.4375000), wk =   0.0019531
        k(  176) = (  -0.1250000  -0.1250000   0.5000000), wk =   0.0019531
        k(  177) = (  -0.1875000  -0.1875000   0.5625000), wk =   0.0019531
        k(  178) = (  -0.2500000  -0.2500000   0.6250000), wk =   0.0019531
        k(  179) = (   0.6875000   0.6875000  -0.3125000), wk =   0.0019531
        k(  180) = (   0.6250000   0.6250000  -0.2500000), wk =   0.0019531
        k(  181) = (   0.5625000   0.5625000  -0.1875000), wk =   0.0019531
        k(  182) = (   0.5000000   0.5000000  -0.1250000), wk =   0.0019531
        k(  183) = (   0.4375000   0.4375000  -0.0625000), wk =   0.0019531
        k(  184) = (   0.3750000   0.3750000   0.0000000), wk =   0.0009766
        k(  185) = (   0.0000000   0.0000000   0.5000000), wk =   0.0004883
        k(  186) = (  -0.0625000  -0.0625000   0.5625000), wk =   0.0019531
        k(  187) = (  -0.1250000  -0.1250000   0.6250000), wk =   0.0019531
        k(  188) = (  -0.1875000  -0.1875000   0.6875000), wk =   0.0019531
        k(  189) = (   0.7500000   0.7500000  -0.2500000), wk =   0.0019531
        k(  190) = (   0.6875000   0.6875000  -0.1875000), wk =   0.0019531
        k(  191) = (   0.6250000   0.6250000  -0.1250000), wk =   0.0019531
        k(  192) = (   0.5625000   0.5625000  -0.0625000), wk =   0.0019531
        k(  193) = (   0.5000000   0.5000000   0.0000000), wk =   0.0009766
        k(  194) = (   0.0000000   0.0000000   0.6250000), wk =   0.0004883
        k(  195) = (  -0.0625000  -0.0625000   0.6875000), wk =   0.0019531
        k(  196) = (  -0.1250000  -0.1250000   0.7500000), wk =   0.0019531
        k(  197) = (   0.8125000   0.8125000  -0.1875000), wk =   0.0019531
        k(  198) = (   0.7500000   0.7500000  -0.1250000), wk =   0.0019531
        k(  199) = (   0.6875000   0.6875000  -0.0625000), wk =   0.0019531
        k(  200) = (   0.6250000   0.6250000   0.0000000), wk =   0.0009766
        k(  201) = (   0.0000000   0.0000000   0.7500000), wk =   0.0004883
        k(  202) = (  -0.0625000  -0.0625000   0.8125000), wk =   0.0019531
        k(  203) = (   0.8750000   0.8750000  -0.1250000), wk =   0.0019531
        k(  204) = (   0.8125000   0.8125000  -0.0625000), wk =   0.0019531
        k(  205) = (   0.7500000   0.7500000   0.0000000), wk =   0.0009766
        k(  206) = (   0.0000000   0.0000000   0.8750000), wk =   0.0004883
        k(  207) = (   0.9375000   0.9375000  -0.0625000), wk =   0.0019531
        k(  208) = (   0.8750000   0.8750000   0.0000000), wk =   0.0009766
        k(  209) = (   0.0000000   0.0000000  -1.0000000), wk =   0.0002441
        k(  210) = (   0.2500000   0.0000000  -0.1250000), wk =   0.0019531
        k(  211) = (   0.0000000  -0.1250000   0.2500000), wk =   0.0019531
        k(  212) = (   0.3125000  -0.0625000  -0.1875000), wk =   0.0039063
        k(  213) = (  -0.0625000  -0.1875000   0.3125000), wk =   0.0039063
        k(  214) = (   0.3750000  -0.1250000  -0.2500000), wk =   0.0039063
        k(  215) = (  -0.1250000  -0.2500000   0.3750000), wk =   0.0039063
        k(  216) = (   0.4375000  -0.1875000  -0.3125000), wk =   0.0039063
        k(  217) = (  -0.1875000  -0.3125000   0.4375000), wk =   0.0039063
        k(  218) = (   0.5000000  -0.2500000  -0.3750000), wk =   0.0039063
        k(  219) = (  -0.2500000  -0.3750000   0.5000000), wk =   0.0039063
        k(  220) = (  -0.4375000   0.6875000   0.5625000), wk =   0.0039063
        k(  221) = (   0.6875000   0.5625000  -0.4375000), wk =   0.0039063
        k(  222) = (  -0.3750000   0.6250000   0.5000000), wk =   0.0019531
        k(  223) = (   0.3750000   0.0000000  -0.1250000), wk =   0.0019531
        k(  224) = (   0.0000000  -0.1250000   0.3750000), wk =   0.0019531
        k(  225) = (   0.4375000  -0.0625000  -0.1875000), wk =   0.0039063
        k(  226) = (  -0.0625000  -0.1875000   0.4375000), wk =   0.0039063
        k(  227) = (   0.5000000  -0.1250000  -0.2500000), wk =   0.0039063
        k(  228) = (  -0.1250000  -0.2500000   0.5000000), wk =   0.0039063
        k(  229) = (   0.5625000  -0.1875000  -0.3125000), wk =   0.0039063
        k(  230) = (  -0.1875000  -0.3125000   0.5625000), wk =   0.0039063
        k(  231) = (  -0.3750000   0.7500000   0.6250000), wk =   0.0039063
        k(  232) = (   0.7500000   0.6250000  -0.3750000), wk =   0.0039063
        k(  233) = (  -0.3125000   0.6875000   0.5625000), wk =   0.0039063
        k(  234) = (   0.6875000   0.5625000  -0.3125000), wk =   0.0039063
        k(  235) = (  -0.2500000   0.6250000   0.5000000), wk =   0.0039063
        k(  236) = (   0.6250000   0.5000000  -0.2500000), wk =   0.0039063
        k(  237) = (  -0.1875000   0.5625000   0.4375000), wk =   0.0039063
        k(  238) = (   0.5625000   0.4375000  -0.1875000), wk =   0.0039063
        k(  239) = (  -0.1250000   0.5000000   0.3750000), wk =   0.0039063
        k(  240) = (   0.5000000   0.3750000  -0.1250000), wk =   0.0039063
        k(  241) = (  -0.0625000   0.4375000   0.3125000), wk =   0.0039063
        k(  242) = (   0.4375000   0.3125000  -0.0625000), wk =   0.0039063
        k(  243) = (   0.0000000   0.3750000   0.2500000), wk =   0.0019531
        k(  244) = (   0.3750000   0.2500000   0.0000000), wk =   0.0019531
        k(  245) = (   0.5000000   0.0000000  -0.1250000), wk =   0.0019531
        k(  246) = (   0.0000000  -0.1250000   0.5000000), wk =   0.0019531
        k(  247) = (   0.5625000  -0.0625000  -0.1875000), wk =   0.0039063
        k(  248) = (  -0.0625000  -0.1875000   0.5625000), wk =   0.0039063
        k(  249) = (   0.6250000  -0.1250000  -0.2500000), wk =   0.0039063
        k(  250) = (  -0.1250000  -0.2500000   0.6250000), wk =   0.0039063
        k(  251) = (  -0.3125000   0.8125000   0.6875000), wk =   0.0039063
        k(  252) = (   0.8125000   0.6875000  -0.3125000), wk =   0.0039063
        k(  253) = (  -0.2500000   0.7500000   0.6250000), wk =   0.0039063
        k(  254) = (   0.7500000   0.6250000  -0.2500000), wk =   0.0039063
        k(  255) = (  -0.1875000   0.6875000   0.5625000), wk =   0.0039063
        k(  256) = (   0.6875000   0.5625000  -0.1875000), wk =   0.0039063
        k(  257) = (  -0.1250000   0.6250000   0.5000000), wk =   0.0039063
        k(  258) = (   0.6250000   0.5000000  -0.1250000), wk =   0.0039063
        k(  259) = (  -0.0625000   0.5625000   0.4375000), wk =   0.0039063
        k(  260) = (   0.5625000   0.4375000  -0.0625000), wk =   0.0039063
        k(  261) = (   0.0000000   0.5000000   0.3750000), wk =   0.0019531
        k(  262) = (   0.5000000   0.3750000   0.0000000), wk =   0.0019531
        k(  263) = (   0.6250000   0.0000000  -0.1250000), wk =   0.0019531
        k(  264) = (   0.0000000  -0.1250000   0.6250000), wk =   0.0019531
        k(  265) = (   0.6875000  -0.0625000  -0.1875000), wk =   0.0039063
        k(  266) = (  -0.0625000  -0.1875000   0.6875000), wk =   0.0039063
        k(  267) = (  -0.2500000   0.8750000   0.7500000), wk =   0.0039063
        k(  268) = (   0.8750000   0.7500000  -0.2500000), wk =   0.0039063
        k(  269) = (  -0.1875000   0.8125000   0.6875000), wk =   0.0039063
        k(  270) = (   0.8125000   0.6875000  -0.1875000), wk =   0.0039063
        k(  271) = (  -0.1250000   0.7500000   0.6250000), wk =   0.0039063
        k(  272) = (   0.7500000   0.6250000  -0.1250000), wk =   0.0039063
        k(  273) = (  -0.0625000   0.6875000   0.5625000), wk =   0.0039063
        k(  274) = (   0.6875000   0.5625000  -0.0625000), wk =   0.0039063
        k(  275) = (   0.0000000   0.6250000   0.5000000), wk =   0.0019531
        k(  276) = (   0.6250000   0.5000000   0.0000000), wk =   0.0019531
        k(  277) = (   0.7500000   0.0000000  -0.1250000), wk =   0.0019531
        k(  278) = (   0.0000000  -0.1250000   0.7500000), wk =   0.0019531
        k(  279) = (  -0.1875000   0.9375000   0.8125000), wk =   0.0039063
        k(  280) = (   0.9375000   0.8125000  -0.1875000), wk =   0.0039063
        k(  281) = (  -0.1250000   0.8750000   0.7500000), wk =   0.0039063
        k(  282) = (   0.8750000   0.7500000  -0.1250000), wk =   0.0039063
        k(  283) = (  -0.0625000   0.8125000   0.6875000), wk =   0.0039063
        k(  284) = (   0.8125000   0.6875000  -0.0625000), wk =   0.0039063
        k(  285) = (   0.0000000   0.7500000   0.6250000), wk =   0.0019531
        k(  286) = (   0.7500000   0.6250000   0.0000000), wk =   0.0019531
        k(  287) = (  -0.1250000   1.0000000   0.8750000), wk =   0.0019531
        k(  288) = (   1.0000000   0.8750000  -0.1250000), wk =   0.0019531
        k(  289) = (  -0.0625000   0.9375000   0.8125000), wk =   0.0039063
        k(  290) = (   0.9375000   0.8125000  -0.0625000), wk =   0.0039063
        k(  291) = (   0.0000000   0.8750000   0.7500000), wk =   0.0019531
        k(  292) = (   0.8750000   0.7500000   0.0000000), wk =   0.0019531
        k(  293) = (  -1.0000000   0.0000000  -0.1250000), wk =   0.0009766
        k(  294) = (   0.0000000  -0.1250000  -1.0000000), wk =   0.0009766
        k(  295) = (   0.5000000   0.0000000  -0.2500000), wk =   0.0019531
        k(  296) = (   0.0000000  -0.2500000   0.5000000), wk =   0.0019531
        k(  297) = (   0.5625000  -0.0625000  -0.3125000), wk =   0.0039063
        k(  298) = (  -0.0625000  -0.3125000   0.5625000), wk =   0.0039063
        k(  299) = (  -0.3750000   0.8750000   0.6250000), wk =   0.0039063
        k(  300) = (   0.8750000   0.6250000  -0.3750000), wk =   0.0039063
        k(  301) = (  -0.3125000   0.8125000   0.5625000), wk =   0.0039063
        k(  302) = (   0.8125000   0.5625000  -0.3125000), wk =   0.0039063
        k(  303) = (  -0.2500000   0.7500000   0.5000000), wk =   0.0019531
        k(  304) = (   0.6250000   0.0000000  -0.2500000), wk =   0.0019531
        k(  305) = (   0.0000000  -0.2500000   0.6250000), wk =   0.0019531
        k(  306) = (  -0.3125000   0.9375000   0.6875000), wk =   0.0039063
        k(  307) = (   0.9375000   0.6875000  -0.3125000), wk =   0.0039063
        k(  308) = (  -0.2500000   0.8750000   0.6250000), wk =   0.0039063
        k(  309) = (   0.8750000   0.6250000  -0.2500000), wk =   0.0039063
        k(  310) = (  -0.1875000   0.8125000   0.5625000), wk =   0.0039063
        k(  311) = (   0.8125000   0.5625000  -0.1875000), wk =   0.0039063
        k(  312) = (  -0.1250000   0.7500000   0.5000000), wk =   0.0039063
        k(  313) = (   0.7500000   0.5000000  -0.1250000), wk =   0.0039063
        k(  314) = (  -0.0625000   0.6875000   0.4375000), wk =   0.0039063
        k(  315) = (   0.6875000   0.4375000  -0.0625000), wk =   0.0039063
        k(  316) = (   0.0000000   0.6250000   0.3750000), wk =   0.0019531
        k(  317) = (   0.6250000   0.3750000   0.0000000), wk =   0.0019531
        k(  318) = (  -0.2500000   1.0000000   0.7500000), wk =   0.0019531
        k(  319) = (   1.0000000   0.7500000  -0.2500000), wk =   0.0019531
        k(  320) = (  -0.1875000   0.9375000   0.6875000), wk =   0.0039063
        k(  321) = (   0.9375000   0.6875000  -0.1875000), wk =   0.0039063
        k(  322) = (  -0.1250000   0.8750000   0.6250000), wk =   0.0039063
        k(  323) = (   0.8750000   0.6250000  -0.1250000), wk =   0.0039063
        k(  324) = (  -0.0625000   0.8125000   0.5625000), wk =   0.0039063
        k(  325) = (   0.8125000   0.5625000  -0.0625000), wk =   0.0039063
        k(  326) = (   0.0000000   0.7500000   0.5000000), wk =   0.0019531
        k(  327) = (   0.7500000   0.5000000   0.0000000), wk =   0.0019531
        k(  328) = (  -0.1250000   1.0000000   0.7500000), wk =   0.0019531
        k(  329) = (   1.0000000   0.7500000  -0.1250000), wk =   0.0019531
        k(  330) = (  -0.0625000   0.9375000   0.6875000), wk =   0.0039063
        k(  331) = (   0.9375000   0.6875000  -0.0625000), wk =   0.0039063
        k(  332) = (   0.0000000   0.8750000   0.6250000), wk =   0.0019531
        k(  333) = (   0.8750000   0.6250000   0.0000000), wk =   0.0019531
        k(  334) = (  -1.0000000   0.0000000  -0.2500000), wk =   0.0009766
        k(  335) = (   0.0000000  -0.2500000  -1.0000000), wk =   0.0009766
        k(  336) = (  -0.2500000   1.0000000   0.6250000), wk =   0.0019531
        k(  337) = (   1.0000000   0.6250000  -0.2500000), wk =   0.0019531
        k(  338) = (  -0.1875000   0.9375000   0.5625000), wk =   0.0039063
        k(  339) = (   0.9375000   0.5625000  -0.1875000), wk =   0.0039063
        k(  340) = (  -0.1250000   0.8750000   0.5000000), wk =   0.0019531
        k(  341) = (  -0.1250000   1.0000000   0.6250000), wk =   0.0019531
        k(  342) = (   1.0000000   0.6250000  -0.1250000), wk =   0.0019531
        k(  343) = (  -0.0625000   0.9375000   0.5625000), wk =   0.0039063
        k(  344) = (   0.9375000   0.5625000  -0.0625000), wk =   0.0039063
        k(  345) = (   0.0000000   0.8750000   0.5000000), wk =   0.0019531
        k(  346) = (   0.8750000   0.5000000   0.0000000), wk =   0.0019531
        k(  347) = (  -1.0000000   0.0000000  -0.3750000), wk =   0.0009766
        k(  348) = (   0.0000000  -0.3750000  -1.0000000), wk =   0.0009766
        k(  349) = (  -1.0000000   0.0000000  -0.5000000), wk =   0.0004883

                       cryst. coord.
        k(    1) = (   0.0000000   0.0000000   0.0000000), wk =   0.0002441
        k(    2) = (   0.0000000   0.0000000   0.0625000), wk =   0.0019531
        k(    3) = (   0.0000000   0.0000000   0.1250000), wk =   0.0019531
        k(    4) = (   0.0000000   0.0000000   0.1875000), wk =   0.0019531
        k(    5) = (   0.0000000   0.0000000   0.2500000), wk =   0.0019531
        k(    6) = (   0.0000000   0.0000000   0.3125000), wk =   0.0019531
        k(    7) = (   0.0000000   0.0000000   0.3750000), wk =   0.0019531
        k(    8) = (   0.0000000   0.0000000   0.4375000), wk =   0.0019531
        k(    9) = (   0.0000000   0.0000000  -0.5000000), wk =   0.0009766
        k(   10) = (   0.0000000   0.0625000   0.0625000), wk =   0.0009766
        k(   11) = (   0.0000000   0.0625000   0.1250000), wk =   0.0039063
        k(   12) = (   0.0000000   0.0625000   0.1875000), wk =   0.0039063
        k(   13) = (   0.0000000   0.0625000   0.2500000), wk =   0.0039063
        k(   14) = (   0.0000000   0.0625000   0.3125000), wk =   0.0039063
        k(   15) = (   0.0000000   0.0625000   0.3750000), wk =   0.0039063
        k(   16) = (   0.0000000   0.0625000   0.4375000), wk =   0.0039063
        k(   17) = (   0.0000000   0.0625000  -0.5000000), wk =   0.0039063
        k(   18) = (   0.0000000   0.0625000  -0.4375000), wk =   0.0039063
        k(   19) = (   0.0000000   0.0625000  -0.3750000), wk =   0.0039063
        k(   20) = (   0.0000000   0.0625000  -0.3125000), wk =   0.0039063
        k(   21) = (   0.0000000   0.0625000  -0.2500000), wk =   0.0039063
        k(   22) = (   0.0000000   0.0625000  -0.1875000), wk =   0.0039063
        k(   23) = (   0.0000000   0.0625000  -0.1250000), wk =   0.0039063
        k(   24) = (   0.0000000   0.0625000  -0.0625000), wk =   0.0019531
        k(   25) = (   0.0000000   0.1250000   0.1250000), wk =   0.0009766
        k(   26) = (   0.0000000   0.1250000   0.1875000), wk =   0.0039063
        k(   27) = (   0.0000000   0.1250000   0.2500000), wk =   0.0039063
        k(   28) = (   0.0000000   0.1250000   0.3125000), wk =   0.0039063
        k(   29) = (   0.0000000   0.1250000   0.3750000), wk =   0.0039063
        k(   30) = (   0.0000000   0.1250000   0.4375000), wk =   0.0039063
        k(   31) = (   0.0000000   0.1250000  -0.5000000), wk =   0.0039063
        k(   32) = (   0.0000000   0.1250000  -0.4375000), wk =   0.0039063
        k(   33) = (   0.0000000   0.1250000  -0.3750000), wk =   0.0039063
        k(   34) = (   0.0000000   0.1250000  -0.3125000), wk =   0.0039063
        k(   35) = (   0.0000000   0.1250000  -0.2500000), wk =   0.0039063
        k(   36) = (   0.0000000   0.1250000  -0.1875000), wk =   0.0039063
        k(   37) = (   0.0000000   0.1250000  -0.1250000), wk =   0.0019531
        k(   38) = (   0.0000000   0.1875000   0.1875000), wk =   0.0009766
        k(   39) = (   0.0000000   0.1875000   0.2500000), wk =   0.0039063
        k(   40) = (   0.0000000   0.1875000   0.3125000), wk =   0.0039063
        k(   41) = (   0.0000000   0.1875000   0.3750000), wk =   0.0039063
        k(   42) = (   0.0000000   0.1875000   0.4375000), wk =   0.0039063
        k(   43) = (   0.0000000   0.1875000  -0.5000000), wk =   0.0039063
        k(   44) = (   0.0000000   0.1875000  -0.4375000), wk =   0.0039063
        k(   45) = (   0.0000000   0.1875000  -0.3750000), wk =   0.0039063
        k(   46) = (   0.0000000   0.1875000  -0.3125000), wk =   0.0039063
        k(   47) = (   0.0000000   0.1875000  -0.2500000), wk =   0.0039063
        k(   48) = (   0.0000000   0.1875000  -0.1875000), wk =   0.0019531
        k(   49) = (   0.0000000   0.2500000   0.2500000), wk =   0.0009766
        k(   50) = (   0.0000000   0.2500000   0.3125000), wk =   0.0039063
        k(   51) = (   0.0000000   0.2500000   0.3750000), wk =   0.0039063
        k(   52) = (   0.0000000   0.2500000   0.4375000), wk =   0.0039063
        k(   53) = (   0.0000000   0.2500000  -0.5000000), wk =   0.0039063
        k(   54) = (   0.0000000   0.2500000  -0.4375000), wk =   0.0039063
        k(   55) = (   0.0000000   0.2500000  -0.3750000), wk =   0.0039063
        k(   56) = (   0.0000000   0.2500000  -0.3125000), wk =   0.0039063
        k(   57) = (   0.0000000   0.2500000  -0.2500000), wk =   0.0019531
        k(   58) = (   0.0000000   0.3125000   0.3125000), wk =   0.0009766
        k(   59) = (   0.0000000   0.3125000   0.3750000), wk =   0.0039063
        k(   60) = (   0.0000000   0.3125000   0.4375000), wk =   0.0039063
        k(   61) = (   0.0000000   0.3125000  -0.5000000), wk =   0.0039063
        k(   62) = (   0.0000000   0.3125000  -0.4375000), wk =   0.0039063
        k(   63) = (   0.0000000   0.3125000  -0.3750000), wk =   0.0039063
        k(   64) = (   0.0000000   0.3125000  -0.3125000), wk =   0.0019531
        k(   65) = (   0.0000000   0.3750000   0.3750000), wk =   0.0009766
        k(   66) = (   0.0000000   0.3750000   0.4375000), wk =   0.0039063
        k(   67) = (   0.0000000   0.3750000  -0.5000000), wk =   0.0039063
        k(   68) = (   0.0000000   0.3750000  -0.4375000), wk =   0.0039063
        k(   69) = (   0.0000000   0.3750000  -0.3750000), wk =   0.0019531
        k(   70) = (   0.0000000   0.4375000   0.4375000), wk =   0.0009766
        k(   71) = (   0.0000000   0.4375000  -0.5000000), wk =   0.0039063
        k(   72) = (   0.0000000   0.4375000  -0.4375000), wk =   0.0019531
        k(   73) = (   0.0000000  -0.5000000  -0.5000000), wk =   0.0004883
        k(   74) = (   0.0625000   0.1250000   0.1875000), wk =   0.0019531
        k(   75) = (   0.0625000   0.1250000   0.2500000), wk =   0.0039063
        k(   76) = (   0.0625000   0.1250000   0.3125000), wk =   0.0039063
        k(   77) = (   0.0625000   0.1250000   0.3750000), wk =   0.0039063
        k(   78) = (   0.0625000   0.1250000   0.4375000), wk =   0.0039063
        k(   79) = (   0.0625000   0.1250000  -0.5000000), wk =   0.0039063
        k(   80) = (   0.0625000   0.1250000  -0.4375000), wk =   0.0039063
        k(   81) = (   0.0625000   0.1875000   0.2500000), wk =   0.0019531
        k(   82) = (   0.0625000   0.1875000   0.3125000), wk =   0.0039063
        k(   83) = (   0.0625000   0.1875000   0.3750000), wk =   0.0039063
        k(   84) = (   0.0625000   0.1875000   0.4375000), wk =   0.0039063
        k(   85) = (   0.0625000   0.1875000  -0.5000000), wk =   0.0039063
        k(   86) = (   0.0625000   0.1875000  -0.4375000), wk =   0.0039063
        k(   87) = (   0.0625000   0.1875000  -0.3750000), wk =   0.0039063
        k(   88) = (   0.0625000   0.1875000  -0.3125000), wk =   0.0039063
        k(   89) = (   0.0625000   0.1875000  -0.2500000), wk =   0.0039063
        k(   90) = (   0.0625000   0.1875000  -0.1875000), wk =   0.0039063
        k(   91) = (   0.0625000   0.1875000  -0.1250000), wk =   0.0019531
        k(   92) = (   0.0625000   0.2500000   0.3125000), wk =   0.0019531
        k(   93) = (   0.0625000   0.2500000   0.3750000), wk =   0.0039063
        k(   94) = (   0.0625000   0.2500000   0.4375000), wk =   0.0039063
        k(   95) = (   0.0625000   0.2500000  -0.5000000), wk =   0.0039063
        k(   96) = (   0.0625000   0.2500000  -0.4375000), wk =   0.0039063
        k(   97) = (   0.0625000   0.2500000  -0.3750000), wk =   0.0039063
        k(   98) = (   0.0625000   0.2500000  -0.3125000), wk =   0.0039063
        k(   99) = (   0.0625000   0.2500000  -0.2500000), wk =   0.0039063
        k(  100) = (   0.0625000   0.2500000  -0.1875000), wk =   0.0019531
        k(  101) = (   0.0625000   0.3125000   0.3750000), wk =   0.0019531
        k(  102) = (   0.0625000   0.3125000   0.4375000), wk =   0.0039063
        k(  103) = (   0.0625000   0.3125000  -0.5000000), wk =   0.0039063
        k(  104) = (   0.0625000   0.3125000  -0.4375000), wk =   0.0039063
        k(  105) = (   0.0625000   0.3125000  -0.3750000), wk =   0.0039063
        k(  106) = (   0.0625000   0.3125000  -0.3125000), wk =   0.0039063
        k(  107) = (   0.0625000   0.3125000  -0.2500000), wk =   0.0019531
        k(  108) = (   0.0625000   0.3750000   0.4375000), wk =   0.0019531
        k(  109) = (   0.0625000   0.3750000  -0.5000000), wk =   0.0039063
        k(  110) = (   0.0625000   0.3750000  -0.4375000), wk =   0.0039063
        k(  111) = (   0.0625000   0.3750000  -0.3750000), wk =   0.0039063
        k(  112) = (   0.0625000   0.3750000  -0.3125000), wk =   0.0019531
        k(  113) = (   0.0625000   0.4375000  -0.5000000), wk =   0.0019531
        k(  114) = (   0.0625000   0.4375000  -0.4375000), wk =   0.0039063
        k(  115) = (   0.0625000   0.4375000  -0.3750000), wk =   0.0019531
        k(  116) = (   0.0625000  -0.5000000  -0.4375000), wk =   0.0009766
        k(  117) = (   0.1250000   0.2500000   0.3750000), wk =   0.0019531
        k(  118) = (   0.1250000   0.2500000   0.4375000), wk =   0.0039063
        k(  119) = (   0.1250000   0.2500000  -0.5000000), wk =   0.0039063
        k(  120) = (   0.1250000   0.2500000  -0.4375000), wk =   0.0039063
        k(  121) = (   0.1250000   0.2500000  -0.3750000), wk =   0.0039063
        k(  122) = (   0.1250000   0.3125000   0.4375000), wk =   0.0019531
        k(  123) = (   0.1250000   0.3125000  -0.5000000), wk =   0.0039063
        k(  124) = (   0.1250000   0.3125000  -0.4375000), wk =   0.0039063
        k(  125) = (   0.1250000   0.3125000  -0.3750000), wk =   0.0039063
        k(  126) = (   0.1250000   0.3125000  -0.3125000), wk =   0.0039063
        k(  127) = (   0.1250000   0.3125000  -0.2500000), wk =   0.0039063
        k(  128) = (   0.1250000   0.3125000  -0.1875000), wk =   0.0019531
        k(  129) = (   0.1250000   0.3750000  -0.5000000), wk =   0.0019531
        k(  130) = (   0.1250000   0.3750000  -0.4375000), wk =   0.0039063
        k(  131) = (   0.1250000   0.3750000  -0.3750000), wk =   0.0039063
        k(  132) = (   0.1250000   0.3750000  -0.3125000), wk =   0.0039063
        k(  133) = (   0.1250000   0.3750000  -0.2500000), wk =   0.0019531
        k(  134) = (   0.1250000   0.4375000  -0.4375000), wk =   0.0019531
        k(  135) = (   0.1250000   0.4375000  -0.3750000), wk =   0.0039063
        k(  136) = (   0.1250000   0.4375000  -0.3125000), wk =   0.0019531
        k(  137) = (   0.1250000  -0.5000000  -0.3750000), wk =   0.0009766
        k(  138) = (   0.1875000   0.3750000  -0.4375000), wk =   0.0019531
        k(  139) = (   0.1875000   0.3750000  -0.3750000), wk =   0.0039063
        k(  140) = (   0.1875000   0.3750000  -0.3125000), wk =   0.0039063
        k(  141) = (   0.1875000   0.4375000  -0.3750000), wk =   0.0019531
        k(  142) = (   0.1875000   0.4375000  -0.3125000), wk =   0.0039063
        k(  143) = (   0.1875000   0.4375000  -0.2500000), wk =   0.0019531
        k(  144) = (   0.1875000  -0.5000000  -0.3125000), wk =   0.0009766
        k(  145) = (   0.2500000  -0.5000000  -0.2500000), wk =   0.0009766
        k(  146) = (   0.0625000   0.0625000   0.0000000), wk =   0.0004883
        k(  147) = (   0.1250000   0.0625000   0.0000000), wk =   0.0019531
        k(  148) = (   0.1875000   0.0625000   0.0000000), wk =   0.0019531
        k(  149) = (   0.2500000   0.0625000   0.0000000), wk =   0.0019531
        k(  150) = (   0.3125000   0.0625000   0.0000000), wk =   0.0019531
        k(  151) = (   0.3750000   0.0625000   0.0000000), wk =   0.0019531
        k(  152) = (   0.4375000   0.0625000   0.0000000), wk =   0.0019531
        k(  153) = (  -0.5000000   0.0625000   0.0000000), wk =   0.0019531
        k(  154) = (  -0.4375000   0.0625000   0.0000000), wk =   0.0019531
        k(  155) = (  -0.3750000   0.0625000   0.0000000), wk =   0.0019531
        k(  156) = (  -0.3125000   0.0625000   0.0000000), wk =   0.0019531
        k(  157) = (  -0.2500000   0.0625000   0.0000000), wk =   0.0019531
        k(  158) = (  -0.1875000   0.0625000   0.0000000), wk =   0.0019531
        k(  159) = (  -0.1250000   0.0625000   0.0000000), wk =   0.0019531
        k(  160) = (  -0.0625000   0.0625000   0.0000000), wk =   0.0009766
        k(  161) = (   0.1250000   0.1250000   0.0000000), wk =   0.0004883
        k(  162) = (   0.1875000   0.1250000   0.0000000), wk =   0.0019531
        k(  163) = (   0.2500000   0.1250000   0.0000000), wk =   0.0019531
        k(  164) = (   0.3125000   0.1250000   0.0000000), wk =   0.0019531
        k(  165) = (   0.3750000   0.1250000   0.0000000), wk =   0.0019531
        k(  166) = (   0.4375000   0.1250000   0.0000000), wk =   0.0019531
        k(  167) = (  -0.5000000   0.1250000   0.0000000), wk =   0.0019531
        k(  168) = (  -0.4375000   0.1250000   0.0000000), wk =   0.0019531
        k(  169) = (  -0.3750000   0.1250000   0.0000000), wk =   0.0019531
        k(  170) = (  -0.3125000   0.1250000   0.0000000), wk =   0.0019531
        k(  171) = (  -0.2500000   0.1250000   0.0000000), wk =   0.0019531
        k(  172) = (  -0.1875000   0.1250000   0.0000000), wk =   0.0019531
        k(  173) = (  -0.1250000   0.1250000   0.0000000), wk =   0.0009766
        k(  174) = (   0.1875000   0.1875000   0.0000000), wk =   0.0004883
        k(  175) = (   0.2500000   0.1875000   0.0000000), wk =   0.0019531
        k(  176) = (   0.3125000   0.1875000   0.0000000), wk =   0.0019531
        k(  177) = (   0.3750000   0.1875000   0.0000000), wk =   0.0019531
        k(  178) = (   0.4375000   0.1875000   0.0000000), wk =   0.0019531
        k(  179) = (  -0.5000000   0.1875000   0.0000000), wk =   0.0019531
        k(  180) = (  -0.4375000   0.1875000   0.0000000), wk =   0.0019531
        k(  181) = (  -0.3750000   0.1875000   0.0000000), wk =   0.0019531
        k(  182) = (  -0.3125000   0.1875000   0.0000000), wk =   0.0019531
        k(  183) = (  -0.2500000   0.1875000   0.0000000), wk =   0.0019531
        k(  184) = (  -0.1875000   0.1875000   0.0000000), wk =   0.0009766
        k(  185) = (   0.2500000   0.2500000   0.0000000), wk =   0.0004883
        k(  186) = (   0.3125000   0.2500000   0.0000000), wk =   0.0019531
        k(  187) = (   0.3750000   0.2500000   0.0000000), wk =   0.0019531
        k(  188) = (   0.4375000   0.2500000   0.0000000), wk =   0.0019531
        k(  189) = (  -0.5000000   0.2500000   0.0000000), wk =   0.0019531
        k(  190) = (  -0.4375000   0.2500000   0.0000000), wk =   0.0019531
        k(  191) = (  -0.3750000   0.2500000   0.0000000), wk =   0.0019531
        k(  192) = (  -0.3125000   0.2500000   0.0000000), wk =   0.0019531
        k(  193) = (  -0.2500000   0.2500000   0.0000000), wk =   0.0009766
        k(  194) = (   0.3125000   0.3125000   0.0000000), wk =   0.0004883
        k(  195) = (   0.3750000   0.3125000   0.0000000), wk =   0.0019531
        k(  196) = (   0.4375000   0.3125000   0.0000000), wk =   0.0019531
        k(  197) = (  -0.5000000   0.3125000   0.0000000), wk =   0.0019531
        k(  198) = (  -0.4375000   0.3125000   0.0000000), wk =   0.0019531
        k(  199) = (  -0.3750000   0.3125000   0.0000000), wk =   0.0019531
        k(  200) = (  -0.3125000   0.3125000   0.0000000), wk =   0.0009766
        k(  201) = (   0.3750000   0.3750000   0.0000000), wk =   0.0004883
        k(  202) = (   0.4375000   0.3750000   0.0000000), wk =   0.0019531
        k(  203) = (  -0.5000000   0.3750000   0.0000000), wk =   0.0019531
        k(  204) = (  -0.4375000   0.3750000   0.0000000), wk =   0.0019531
        k(  205) = (  -0.3750000   0.3750000   0.0000000), wk =   0.0009766
        k(  206) = (   0.4375000   0.4375000   0.0000000), wk =   0.0004883
        k(  207) = (  -0.5000000   0.4375000   0.0000000), wk =   0.0019531
        k(  208) = (  -0.4375000   0.4375000   0.0000000), wk =   0.0009766
        k(  209) = (  -0.5000000  -0.5000000   0.0000000), wk =   0.0002441
        k(  210) = (  -0.1875000  -0.0625000  -0.1250000), wk =   0.0019531
        k(  211) = (   0.1250000   0.0625000  -0.0625000), wk =   0.0019531
        k(  212) = (  -0.2500000  -0.1250000  -0.1875000), wk =   0.0039063
        k(  213) = (   0.1875000   0.0625000  -0.0625000), wk =   0.0039063
        k(  214) = (  -0.3125000  -0.1875000  -0.2500000), wk =   0.0039063
        k(  215) = (   0.2500000   0.0625000  -0.0625000), wk =   0.0039063
        k(  216) = (  -0.3750000  -0.2500000  -0.3125000), wk =   0.0039063
        k(  217) = (   0.3125000   0.0625000  -0.0625000), wk =   0.0039063
        k(  218) = (  -0.4375000  -0.3125000  -0.3750000), wk =   0.0039063
        k(  219) = (   0.3750000   0.0625000  -0.0625000), wk =   0.0039063
        k(  220) = (   0.5000000   0.6250000   0.5625000), wk =   0.0039063
        k(  221) = (  -0.5625000   0.0625000  -0.0625000), wk =   0.0039063
        k(  222) = (   0.4375000   0.5625000   0.5000000), wk =   0.0019531
        k(  223) = (  -0.2500000  -0.0625000  -0.1875000), wk =   0.0019531
        k(  224) = (   0.1875000   0.1250000  -0.0625000), wk =   0.0019531
        k(  225) = (  -0.3125000  -0.1250000  -0.2500000), wk =   0.0039063
        k(  226) = (   0.2500000   0.1250000  -0.0625000), wk =   0.0039063
        k(  227) = (  -0.3750000  -0.1875000  -0.3125000), wk =   0.0039063
        k(  228) = (   0.3125000   0.1250000  -0.0625000), wk =   0.0039063
        k(  229) = (  -0.4375000  -0.2500000  -0.3750000), wk =   0.0039063
        k(  230) = (   0.3750000   0.1250000  -0.0625000), wk =   0.0039063
        k(  231) = (   0.5000000   0.6875000   0.5625000), wk =   0.0039063
        k(  232) = (  -0.5625000   0.1250000  -0.0625000), wk =   0.0039063
        k(  233) = (   0.4375000   0.6250000   0.5000000), wk =   0.0039063
        k(  234) = (  -0.5000000   0.1250000  -0.0625000), wk =   0.0039063
        k(  235) = (   0.3750000   0.5625000   0.4375000), wk =   0.0039063
        k(  236) = (  -0.4375000   0.1250000  -0.0625000), wk =   0.0039063
        k(  237) = (   0.3125000   0.5000000   0.3750000), wk =   0.0039063
        k(  238) = (  -0.3750000   0.1250000  -0.0625000), wk =   0.0039063
        k(  239) = (   0.2500000   0.4375000   0.3125000), wk =   0.0039063
        k(  240) = (  -0.3125000   0.1250000  -0.0625000), wk =   0.0039063
        k(  241) = (   0.1875000   0.3750000   0.2500000), wk =   0.0039063
        k(  242) = (  -0.2500000   0.1250000  -0.0625000), wk =   0.0039063
        k(  243) = (   0.1250000   0.3125000   0.1875000), wk =   0.0019531
        k(  244) = (  -0.1875000   0.1250000  -0.0625000), wk =   0.0019531
        k(  245) = (  -0.3125000  -0.0625000  -0.2500000), wk =   0.0019531
        k(  246) = (   0.2500000   0.1875000  -0.0625000), wk =   0.0019531
        k(  247) = (  -0.3750000  -0.1250000  -0.3125000), wk =   0.0039063
        k(  248) = (   0.3125000   0.1875000  -0.0625000), wk =   0.0039063
        k(  249) = (  -0.4375000  -0.1875000  -0.3750000), wk =   0.0039063
        k(  250) = (   0.3750000   0.1875000  -0.0625000), wk =   0.0039063
        k(  251) = (   0.5000000   0.7500000   0.5625000), wk =   0.0039063
        k(  252) = (  -0.5625000   0.1875000  -0.0625000), wk =   0.0039063
        k(  253) = (   0.4375000   0.6875000   0.5000000), wk =   0.0039063
        k(  254) = (  -0.5000000   0.1875000  -0.0625000), wk =   0.0039063
        k(  255) = (   0.3750000   0.6250000   0.4375000), wk =   0.0039063
        k(  256) = (  -0.4375000   0.1875000  -0.0625000), wk =   0.0039063
        k(  257) = (   0.3125000   0.5625000   0.3750000), wk =   0.0039063
        k(  258) = (  -0.3750000   0.1875000  -0.0625000), wk =   0.0039063
        k(  259) = (   0.2500000   0.5000000   0.3125000), wk =   0.0039063
        k(  260) = (  -0.3125000   0.1875000  -0.0625000), wk =   0.0039063
        k(  261) = (   0.1875000   0.4375000   0.2500000), wk =   0.0019531
        k(  262) = (  -0.2500000   0.1875000  -0.0625000), wk =   0.0019531
        k(  263) = (  -0.3750000  -0.0625000  -0.3125000), wk =   0.0019531
        k(  264) = (   0.3125000   0.2500000  -0.0625000), wk =   0.0019531
        k(  265) = (  -0.4375000  -0.1250000  -0.3750000), wk =   0.0039063
        k(  266) = (   0.3750000   0.2500000  -0.0625000), wk =   0.0039063
        k(  267) = (   0.5000000   0.8125000   0.5625000), wk =   0.0039063
        k(  268) = (  -0.5625000   0.2500000  -0.0625000), wk =   0.0039063
        k(  269) = (   0.4375000   0.7500000   0.5000000), wk =   0.0039063
        k(  270) = (  -0.5000000   0.2500000  -0.0625000), wk =   0.0039063
        k(  271) = (   0.3750000   0.6875000   0.4375000), wk =   0.0039063
        k(  272) = (  -0.4375000   0.2500000  -0.0625000), wk =   0.0039063
        k(  273) = (   0.3125000   0.6250000   0.3750000), wk =   0.0039063
        k(  274) = (  -0.3750000   0.2500000  -0.0625000), wk =   0.0039063
        k(  275) = (   0.2500000   0.5625000   0.3125000), wk =   0.0019531
        k(  276) = (  -0.3125000   0.2500000  -0.0625000), wk =   0.0019531
        k(  277) = (  -0.4375000  -0.0625000  -0.3750000), wk =   0.0019531
        k(  278) = (   0.3750000   0.3125000  -0.0625000), wk =   0.0019531
        k(  279) = (   0.5000000   0.8750000   0.5625000), wk =   0.0039063
        k(  280) = (  -0.5625000   0.3125000  -0.0625000), wk =   0.0039063
        k(  281) = (   0.4375000   0.8125000   0.5000000), wk =   0.0039063
        k(  282) = (  -0.5000000   0.3125000  -0.0625000), wk =   0.0039063
        k(  283) = (   0.3750000   0.7500000   0.4375000), wk =   0.0039063
        k(  284) = (  -0.4375000   0.3125000  -0.0625000), wk =   0.0039063
        k(  285) = (   0.3125000   0.6875000   0.3750000), wk =   0.0019531
        k(  286) = (  -0.3750000   0.3125000  -0.0625000), wk =   0.0019531
        k(  287) = (   0.5000000   0.9375000   0.5625000), wk =   0.0019531
        k(  288) = (  -0.5625000   0.3750000  -0.0625000), wk =   0.0019531
        k(  289) = (   0.4375000   0.8750000   0.5000000), wk =   0.0039063
        k(  290) = (  -0.5000000   0.3750000  -0.0625000), wk =   0.0039063
        k(  291) = (   0.3750000   0.8125000   0.4375000), wk =   0.0019531
        k(  292) = (  -0.4375000   0.3750000  -0.0625000), wk =   0.0019531
        k(  293) = (   0.4375000  -0.0625000   0.5000000), wk =   0.0009766
        k(  294) = (  -0.5000000  -0.5625000  -0.0625000), wk =   0.0009766
        k(  295) = (  -0.3750000  -0.1250000  -0.2500000), wk =   0.0019531
        k(  296) = (   0.2500000   0.1250000  -0.1250000), wk =   0.0019531
        k(  297) = (  -0.4375000  -0.1875000  -0.3125000), wk =   0.0039063
        k(  298) = (   0.3125000   0.1250000  -0.1250000), wk =   0.0039063
        k(  299) = (   0.5000000   0.7500000   0.6250000), wk =   0.0039063
        k(  300) = (  -0.6250000   0.1250000  -0.1250000), wk =   0.0039063
        k(  301) = (   0.4375000   0.6875000   0.5625000), wk =   0.0039063
        k(  302) = (  -0.5625000   0.1250000  -0.1250000), wk =   0.0039063
        k(  303) = (   0.3750000   0.6250000   0.5000000), wk =   0.0019531
        k(  304) = (  -0.4375000  -0.1250000  -0.3125000), wk =   0.0019531
        k(  305) = (   0.3125000   0.1875000  -0.1250000), wk =   0.0019531
        k(  306) = (   0.5000000   0.8125000   0.6250000), wk =   0.0039063
        k(  307) = (  -0.6250000   0.1875000  -0.1250000), wk =   0.0039063
        k(  308) = (   0.4375000   0.7500000   0.5625000), wk =   0.0039063
        k(  309) = (  -0.5625000   0.1875000  -0.1250000), wk =   0.0039063
        k(  310) = (   0.3750000   0.6875000   0.5000000), wk =   0.0039063
        k(  311) = (  -0.5000000   0.1875000  -0.1250000), wk =   0.0039063
        k(  312) = (   0.3125000   0.6250000   0.4375000), wk =   0.0039063
        k(  313) = (  -0.4375000   0.1875000  -0.1250000), wk =   0.0039063
        k(  314) = (   0.2500000   0.5625000   0.3750000), wk =   0.0039063
        k(  315) = (  -0.3750000   0.1875000  -0.1250000), wk =   0.0039063
        k(  316) = (   0.1875000   0.5000000   0.3125000), wk =   0.0019531
        k(  317) = (  -0.3125000   0.1875000  -0.1250000), wk =   0.0019531
        k(  318) = (   0.5000000   0.8750000   0.6250000), wk =   0.0019531
        k(  319) = (  -0.6250000   0.2500000  -0.1250000), wk =   0.0019531
        k(  320) = (   0.4375000   0.8125000   0.5625000), wk =   0.0039063
        k(  321) = (  -0.5625000   0.2500000  -0.1250000), wk =   0.0039063
        k(  322) = (   0.3750000   0.7500000   0.5000000), wk =   0.0039063
        k(  323) = (  -0.5000000   0.2500000  -0.1250000), wk =   0.0039063
        k(  324) = (   0.3125000   0.6875000   0.4375000), wk =   0.0039063
        k(  325) = (  -0.4375000   0.2500000  -0.1250000), wk =   0.0039063
        k(  326) = (   0.2500000   0.6250000   0.3750000), wk =   0.0019531
        k(  327) = (  -0.3750000   0.2500000  -0.1250000), wk =   0.0019531
        k(  328) = (   0.4375000   0.8750000   0.5625000), wk =   0.0019531
        k(  329) = (  -0.5625000   0.3125000  -0.1250000), wk =   0.0019531
        k(  330) = (   0.3750000   0.8125000   0.5000000), wk =   0.0039063
        k(  331) = (  -0.5000000   0.3125000  -0.1250000), wk =   0.0039063
        k(  332) = (   0.3125000   0.7500000   0.4375000), wk =   0.0019531
        k(  333) = (  -0.4375000   0.3125000  -0.1250000), wk =   0.0019531
        k(  334) = (   0.3750000  -0.1250000   0.5000000), wk =   0.0009766
        k(  335) = (  -0.5000000  -0.6250000  -0.1250000), wk =   0.0009766
        k(  336) = (   0.4375000   0.8125000   0.6250000), wk =   0.0019531
        k(  337) = (  -0.6250000   0.1875000  -0.1875000), wk =   0.0019531
        k(  338) = (   0.3750000   0.7500000   0.5625000), wk =   0.0039063
        k(  339) = (  -0.5625000   0.1875000  -0.1875000), wk =   0.0039063
        k(  340) = (   0.3125000   0.6875000   0.5000000), wk =   0.0019531
        k(  341) = (   0.3750000   0.8125000   0.5625000), wk =   0.0019531
        k(  342) = (  -0.5625000   0.2500000  -0.1875000), wk =   0.0019531
        k(  343) = (   0.3125000   0.7500000   0.5000000), wk =   0.0039063
        k(  344) = (  -0.5000000   0.2500000  -0.1875000), wk =   0.0039063
        k(  345) = (   0.2500000   0.6875000   0.4375000), wk =   0.0019531
        k(  346) = (  -0.4375000   0.2500000  -0.1875000), wk =   0.0019531
        k(  347) = (   0.3125000  -0.1875000   0.5000000), wk =   0.0009766
        k(  348) = (  -0.5000000  -0.6875000  -0.1875000), wk =   0.0009766
        k(  349) = (   0.2500000  -0.2500000   0.5000000), wk =   0.0004883

     Dense  grid:     7239 G-vectors     FFT dimensions: (  27,  27,  27)

     Dynamical RAM for                 wfc:       0.71 MB

     Dynamical RAM for     wfc (w. buffer):      16.35 MB

     Dynamical RAM for           str. fact:       0.11 MB

     Dynamical RAM for           local pot:       0.00 MB

     Dynamical RAM for          nlocal pot:       0.46 MB

     Dynamical RAM for                qrad:       3.76 MB

     Dynamical RAM for          rho,v,vnew:       3.13 MB

     Dynamical RAM for               rhoin:       1.04 MB

     Dynamical RAM for            rho*nmix:       7.07 MB

     Dynamical RAM for           G-vectors:       0.47 MB

     Dynamical RAM for          h,s,v(r/c):       0.12 MB

     Dynamical RAM for          <psi|beta>:       0.03 MB

     Dynamical RAM for                 psi:       1.42 MB

     Dynamical RAM for                hpsi:       1.42 MB

     Dynamical RAM for      wfcinit/wfcrot:       1.08 MB

     Estimated static dynamical RAM per process >      26.75 MB

     Estimated max dynamical RAM per process >      36.81 MB

     Estimated total dynamical RAM >     482.96 MB
     Generating pointlists ...
     new r_m :   0.2917 (alat units)  1.9455 (a.u.) for type    1

     Initial potential from superposition of free atoms

     starting charge      17.9685, renormalised to      18.0000

 ==============================================================================
     atom number    1 relative position :    0.0000   0.0000   0.0000
     charge :    16.713216  (integrated on a sphere of radius 0.292)
     magnetization :          0.000000    0.000000  -16.713216
     magnetization/charge:    0.000000    0.000000   -1.000000
     polar coord.: r, theta, phi [deg] :    16.713216  180.000000  360.000000

 ==============================================================================
     Starting wfcs are random

     total cpu time spent up to now is        1.5 secs

     Self-consistent Calculation

     iteration #  1     ecut=    80.00 Ry     beta= 0.70
     Davidson diagonalization with overlap

---- Real-time Memory Report at c_bands before calling an iterative solver
            62 MiB given to the printing process from OS
             0 MiB allocation reported by mallinfo(arena+hblkhd)
         47234 MiB available memory on the node where the printing process lives
------------------
     ethr =  1.00E-02,  avg # of iterations = 10.1

     total cpu time spent up to now is       11.1 secs

     total energy              =    -302.78809186 Ry
     estimated scf accuracy    <       5.89774979 Ry

     total magnetization       =     0.00     0.00    -8.55 Bohr mag/cell
     absolute magnetization    =     8.55 Bohr mag/cell

     iteration #  2     ecut=    80.00 Ry     beta= 0.70
     Davidson diagonalization with overlap

---- Real-time Memory Report at c_bands before calling an iterative solver
            73 MiB given to the printing process from OS
             0 MiB allocation reported by mallinfo(arena+hblkhd)
         47131 MiB available memory on the node where the printing process lives
------------------
     ethr =  1.00E-02,  avg # of iterations =  7.5

     total cpu time spent up to now is       16.3 secs

     total energy              =    -307.33345686 Ry
     estimated scf accuracy    <       4.40712539 Ry

     total magnetization       =     0.00     0.00    -1.15 Bohr mag/cell
     absolute magnetization    =     1.15 Bohr mag/cell

     iteration #  3     ecut=    80.00 Ry     beta= 0.70
     Davidson diagonalization with overlap

---- Real-time Memory Report at c_bands before calling an iterative solver
            74 MiB given to the printing process from OS
             0 MiB allocation reported by mallinfo(arena+hblkhd)
         47106 MiB available memory on the node where the printing process lives
------------------
     ethr =  1.00E-02,  avg # of iterations =  2.1

     total cpu time spent up to now is       19.7 secs

     total energy              =    -308.19688613 Ry
     estimated scf accuracy    <       0.54432466 Ry

     total magnetization       =    -0.00    -0.00    -1.69 Bohr mag/cell
     absolute magnetization    =     1.69 Bohr mag/cell

     iteration #  4     ecut=    80.00 Ry     beta= 0.70
     Davidson diagonalization with overlap

---- Real-time Memory Report at c_bands before calling an iterative solver
            75 MiB given to the printing process from OS
             0 MiB allocation reported by mallinfo(arena+hblkhd)
         47098 MiB available memory on the node where the printing process lives
------------------
     ethr =  3.02E-03,  avg # of iterations =  1.8

     total cpu time spent up to now is       23.0 secs

     total energy              =    -308.27444631 Ry
     estimated scf accuracy    <       0.03241499 Ry

     total magnetization       =     0.00    -0.00    -0.79 Bohr mag/cell
     absolute magnetization    =     0.93 Bohr mag/cell

     iteration #  5     ecut=    80.00 Ry     beta= 0.70
     Davidson diagonalization with overlap

---- Real-time Memory Report at c_bands before calling an iterative solver
            76 MiB given to the printing process from OS
             0 MiB allocation reported by mallinfo(arena+hblkhd)
         47104 MiB available memory on the node where the printing process lives
------------------
     ethr =  1.80E-04,  avg # of iterations =  3.7

     total cpu time spent up to now is       26.6 secs

     total energy              =    -308.28024394 Ry
     estimated scf accuracy    <       0.00165994 Ry

     total magnetization       =     0.00    -0.00    -0.67 Bohr mag/cell
     absolute magnetization    =     0.81 Bohr mag/cell

     iteration #  6     ecut=    80.00 Ry     beta= 0.70
     Davidson diagonalization with overlap

---- Real-time Memory Report at c_bands before calling an iterative solver
            77 MiB given to the printing process from OS
             0 MiB allocation reported by mallinfo(arena+hblkhd)
         47093 MiB available memory on the node where the printing process lives
------------------
     ethr =  9.22E-06,  avg # of iterations =  3.3

     total cpu time spent up to now is       30.8 secs

     total energy              =    -308.28150021 Ry
     estimated scf accuracy    <       0.00044368 Ry

     total magnetization       =     0.00    -0.00    -0.64 Bohr mag/cell
     absolute magnetization    =     0.74 Bohr mag/cell

     iteration #  7     ecut=    80.00 Ry     beta= 0.70
     Davidson diagonalization with overlap

---- Real-time Memory Report at c_bands before calling an iterative solver
            78 MiB given to the printing process from OS
             0 MiB allocation reported by mallinfo(arena+hblkhd)
         47107 MiB available memory on the node where the printing process lives
------------------
     ethr =  2.46E-06,  avg # of iterations =  1.4

     total cpu time spent up to now is       34.0 secs

     total energy              =    -308.28148278 Ry
     estimated scf accuracy    <       0.00003068 Ry

     total magnetization       =     0.00     0.00    -0.63 Bohr mag/cell
     absolute magnetization    =     0.73 Bohr mag/cell

     iteration #  8     ecut=    80.00 Ry     beta= 0.70
     Davidson diagonalization with overlap

---- Real-time Memory Report at c_bands before calling an iterative solver
            79 MiB given to the printing process from OS
             0 MiB allocation reported by mallinfo(arena+hblkhd)
         47088 MiB available memory on the node where the printing process lives
------------------
     ethr =  1.70E-07,  avg # of iterations =  2.1

     total cpu time spent up to now is       37.3 secs

     total energy              =    -308.28151496 Ry
     estimated scf accuracy    <       0.00002303 Ry

     total magnetization       =    -0.00    -0.00    -0.63 Bohr mag/cell
     absolute magnetization    =     0.72 Bohr mag/cell

     iteration #  9     ecut=    80.00 Ry     beta= 0.70
     Davidson diagonalization with overlap

---- Real-time Memory Report at c_bands before calling an iterative solver
            80 MiB given to the printing process from OS
             0 MiB allocation reported by mallinfo(arena+hblkhd)
         47090 MiB available memory on the node where the printing process lives
------------------
     ethr =  1.28E-07,  avg # of iterations =  1.0

     total cpu time spent up to now is       40.0 secs

     total energy              =    -308.28151549 Ry
     estimated scf accuracy    <       0.00000013 Ry

     total magnetization       =     0.00    -0.00    -0.63 Bohr mag/cell
     absolute magnetization    =     0.72 Bohr mag/cell

     iteration # 10     ecut=    80.00 Ry     beta= 0.70
     Davidson diagonalization with overlap

---- Real-time Memory Report at c_bands before calling an iterative solver
            81 MiB given to the printing process from OS
             0 MiB allocation reported by mallinfo(arena+hblkhd)
         47089 MiB available memory on the node where the printing process lives
------------------
     ethr =  7.45E-10,  avg # of iterations =  2.0

     total cpu time spent up to now is       74.0 secs

     total energy              =    -308.28151556 Ry
     estimated scf accuracy    <          1.6E-09 Ry

     total magnetization       =    -0.00    -0.00    -0.63 Bohr mag/cell
     absolute magnetization    =     0.72 Bohr mag/cell

     iteration # 11     ecut=    80.00 Ry     beta= 0.70
     Davidson diagonalization with overlap

---- Real-time Memory Report at c_bands before calling an iterative solver
            81 MiB given to the printing process from OS
             0 MiB allocation reported by mallinfo(arena+hblkhd)
         47159 MiB available memory on the node where the printing process lives
------------------
     ethr =  8.94E-12,  avg # of iterations =  2.0

     total cpu time spent up to now is      106.2 secs

     total energy              =    -308.28151556 Ry
     estimated scf accuracy    <          8.8E-10 Ry

     total magnetization       =     0.00     0.00    -0.63 Bohr mag/cell
     absolute magnetization    =     0.72 Bohr mag/cell

     iteration # 12     ecut=    80.00 Ry     beta= 0.70
     Davidson diagonalization with overlap

---- Real-time Memory Report at c_bands before calling an iterative solver
            81 MiB given to the printing process from OS
             0 MiB allocation reported by mallinfo(arena+hblkhd)
         47148 MiB available memory on the node where the printing process lives
------------------
     ethr =  4.90E-12,  avg # of iterations =  2.0

     total cpu time spent up to now is      109.2 secs

     total energy              =    -308.28151556 Ry
     estimated scf accuracy    <          1.8E-10 Ry

     total magnetization       =    -0.00    -0.00    -0.63 Bohr mag/cell
     absolute magnetization    =     0.72 Bohr mag/cell

     iteration # 13     ecut=    80.00 Ry     beta= 0.70
     Davidson diagonalization with overlap

---- Real-time Memory Report at c_bands before calling an iterative solver
            81 MiB given to the printing process from OS
             0 MiB allocation reported by mallinfo(arena+hblkhd)
         47157 MiB available memory on the node where the printing process lives
------------------
     ethr =  1.00E-12,  avg # of iterations =  1.0

 ==============================================================================
     atom number    1 relative position :    0.0000   0.0000   0.0000
     charge :    16.723652  (integrated on a sphere of radius 0.292)
     magnetization :         -0.000000    0.000000   -0.672359
     magnetization/charge:   -0.000000    0.000000   -0.040204
[...]
     0.0000   0.0000

          k = 0.8125 0.5625-0.0625 (   899 PWs)   bands (ev):

   -83.7226 -83.1758 -45.5090 -45.2881 -43.4974 -43.2192 -42.9981 -42.7688
    16.1769  16.3167  16.5910  16.8701  16.9833  17.5876  18.4073  18.9812
    19.0500  19.8757  25.3499  25.5599  26.7716  26.9715  30.7714  30.9040
    34.4401  34.5190

     occupation numbers 
     1.0000   1.0000   1.0000   1.0000   1.0000   1.0000   1.0000   1.0000
     1.0000   1.0000   1.0000   1.0000   1.0000   1.0000   1.0000   1.0037
     1.0094   0.1349   0.0000   0.0000   0.0000   0.0000   0.0000   0.0000
     0.0000   0.0000

          k = 0.0000 0.7500 0.5000 (   895 PWs)   bands (ev):

   -83.7240 -83.1773 -45.5147 -45.2717 -43.5223 -43.1972 -42.9599 -42.7907
    16.2796  16.4559  16.6431  16.7228  17.0273  17.3317  18.3752  18.8829
    18.9586  19.7243  23.6185  23.9162  28.5079  28.6797  30.8110  30.9357
    35.4669  35.5424

     occupation numbers 
     1.0000   1.0000   1.0000   1.0000   1.0000   1.0000   1.0000   1.0000
     1.0000   1.0000   1.0000   1.0000   1.0000   1.0000   1.0000   1.0008
     1.0027   0.4363   0.0000   0.0000   0.0000   0.0000   0.0000   0.0000
     0.0000   0.0000

          k = 0.7500 0.5000 0.0000 (   895 PWs)   bands (ev):

   -83.7240 -83.1773 -45.5077 -45.2814 -43.4997 -43.2130 -42.9843 -42.7704
    16.2784  16.4618  16.6340  16.7255  17.0296  17.3315  18.3739  18.8817
    18.9606  19.7242  23.6186  23.9162  28.5081  28.6796  30.8109  30.9358
    35.4668  35.5424

     occupation numbers 
     1.0000   1.0000   1.0000   1.0000   1.0000   1.0000   1.0000   1.0000
     1.0000   1.0000   1.0000   1.0000   1.0000   1.0000   1.0000   1.0008
     1.0027   0.4366   0.0000   0.0000   0.0000   0.0000   0.0000   0.0000
     0.0000   0.0000

          k =-0.1250 1.0000 0.7500 (   896 PWs)   bands (ev):

   -83.7223 -83.1755 -45.5207 -45.2738 -43.5310 -43.2026 -42.9530 -42.8024
    15.5531  15.8939  15.9169  16.5174  17.9135  18.5277  18.8857  19.1598
    19.4891  20.0042  22.9522  23.1854  30.6018  30.7511  31.6857  31.7892
    32.8027  32.8602

     occupation numbers 
     1.0000   1.0000   1.0000   1.0000   1.0000   1.0000   1.0000   1.0000
     1.0000   1.0000   1.0000   1.0000   1.0000   1.0000   1.0008   1.0309
     0.9979   0.0320   0.0000   0.0000   0.0000   0.0000   0.0000   0.0000
     0.0000   0.0000

          k = 1.0000 0.7500-0.1250 (   896 PWs)   bands (ev):

   -83.7223 -83.1755 -45.5037 -45.2970 -43.4803 -43.2263 -43.0231 -42.7531
    15.5537  15.8933  15.9167  16.5180  17.9132  18.5283  18.8896  19.1493
    19.4963  20.0029  22.9526  23.1853  30.6020  30.7510  31.6857  31.7892
    32.8024  32.8604

     occupation numbers 
     1.0000   1.0000   1.0000   1.0000   1.0000   1.0000   1.0000   1.0000
     1.0000   1.0000   1.0000   1.0000   1.0000   1.0000   1.0009   1.0281
     0.9876   0.0325   0.0000   0.0000   0.0000   0.0000   0.0000   0.0000
     0.0000   0.0000

          k =-0.0625 0.9375 0.6875 (   898 PWs)   bands (ev):

   -83.7213 -83.1745 -45.5230 -45.2762 -43.5340 -43.2047 -42.9559 -42.8066
    15.7240  16.0190  16.1132  16.6312  17.6338  18.2516  18.7197  19.2069
    19.3137  20.0582  24.5288  24.7154  29.4046  29.5445  30.0391  30.1898
    32.8070  32.8785

     occupation numbers 
     1.0000   1.0000   1.0000   1.0000   1.0000   1.0000   1.0000   1.0000
     1.0000   1.0000   1.0000   1.0000   1.0000   1.0000   1.0000   1.0455
     1.0789   0.0154   0.0000   0.0000   0.0000   0.0000   0.0000   0.0000
     0.0000   0.0000

          k = 0.9375 0.6875-0.0625 (   898 PWs)   bands (ev):

   -83.7213 -83.1745 -45.5075 -45.2975 -43.4873 -43.2277 -43.0200 -42.7605
    15.7245  16.0190  16.1123  16.6317  17.6338  18.2520  18.7202  19.1944
    19.3253  20.0577  24.5291  24.7152  29.4046  29.5445  30.0392  30.1898
    32.8069  32.8785

     occupation numbers 
     1.0000   1.0000   1.0000   1.0000   1.0000   1.0000   1.0000   1.0000
     1.0000   1.0000   1.0000   1.0000   1.0000   1.0000   1.0000   1.0414
     1.0810   0.0155   0.0000   0.0000   0.0000   0.0000   0.0000   0.0000
     0.0000   0.0000

          k = 0.0000 0.8750 0.6250 (   897 PWs)   bands (ev):

   -83.7214 -83.1746 -45.5223 -45.2765 -43.5329 -43.2041 -42.9584 -42.8054
    15.9341  16.1933  16.3430  16.7853  17.2896  17.9036  18.5560  19.1285
    19.1609  19.9997  25.9705  26.1426  27.3727  27.5348  29.7373  29.9038
    33.4709  33.5481

     occupation numbers 
     1.0000   1.0000   1.0000   1.0000   1.0000   1.0000   1.0000   1.0000
     1.0000   1.0000   1.0000   1.0000   1.0000   1.0000   1.0000   1.0229
     1.0312   0.0339   0.0000   0.0000   0.0000   0.0000   0.0000   0.0000
     0.0000   0.0000

          k = 0.8750 0.6250 0.0000 (   897 PWs)   bands (ev):

   -83.7214 -83.1746 -45.5093 -45.2943 -43.4932 -43.2252 -43.0112 -42.7661
    15.9344  16.1943  16.3414  16.7854  17.2903  17.9038  18.5553  19.1133
    19.1761  19.9995  25.9709  26.1422  27.3727  27.5348  29.7373  29.9038
    33.4708  33.5482

     occupation numbers 
     1.0000   1.0000   1.0000   1.0000   1.0000   1.0000   1.0000   1.0000
     1.0000   1.0000   1.0000   1.0000   1.0000   1.0000   1.0000   1.0196
     1.0356   0.0340   0.0000   0.0000   0.0000   0.0000   0.0000   0.0000
     0.0000   0.0000

          k =-1.0000 0.0000-0.2500 (   904 PWs)   bands (ev):

   -83.7209 -83.1741 -45.5245 -45.2769 -43.5357 -43.2064 -42.9550 -42.8080
    15.5233  15.8442  15.9035  16.4640  18.0726  18.7074  18.8867  19.2606
    19.4810  20.1127  24.0672  24.2101  29.1132  29.3142  31.4295  31.5273
    32.5480  32.5998

     occupation numbers 
     1.0000   1.0000   1.0000   1.0000   1.0000   1.0000   1.0000   1.0000
     1.0000   1.0000   1.0000   1.0000   1.0000   1.0000   1.0008   1.0639
     1.0088   0.0068   0.0000   0.0000   0.0000   0.0000   0.0000   0.0000
     0.0000   0.0000

          k = 0.0000-0.2500-1.0000 (   904 PWs)   bands (ev):

   -83.7209 -83.1741 -45.5067 -45.3012 -43.4827 -43.2312 -43.0284 -42.7563
    15.5238  15.8440  15.9029  16.4646  18.0721  18.7080  18.8910  19.2457
    19.4920  20.1118  24.0674  24.2100  29.1133  29.3142  31.4294  31.5274
    32.5476  32.6001

     occupation numbers 
     1.0000   1.0000   1.0000   1.0000   1.0000   1.0000   1.0000   1.0000
     1.0000   1.0000   1.0000   1.0000   1.0000   1.0000   1.0009   1.0588
     0.9938   0.0069   0.0000   0.0000   0.0000   0.0000   0.0000   0.0000
     0.0000   0.0000

          k =-0.2500 1.0000 0.6250 (   897 PWs)   bands (ev):

   -83.7252 -83.1785 -45.5120 -45.2681 -43.5197 -43.1938 -42.9536 -42.7886
    15.9783  16.2968  16.3265  16.9300  16.9626  17.5154  18.5566  18.8823
    19.1367  19.7148  22.3375  22.7028  30.3801  30.5286  31.8698  31.9615
    34.4933  34.5823

     occupation numbers 
     1.0000   1.0000   1.0000   1.0000   1.0000   1.0000   1.0000   1.0000
     1.0000   1.0000   1.0000   1.0000   1.0000   1.0000   1.0000   1.0008
     1.0249   0.4612   0.0000   0.0000   0.0000   0.0000   0.0000   0.0000
     0.0000   0.0000

          k = 1.0000 0.6250-0.2500 (   897 PWs)   bands (ev):

   -83.7252 -83.1785 -45.5009 -45.2834 -43.4861 -43.2108 -42.9992 -42.7554
    15.9792  16.2924  16.3297  16.9278  16.9660  17.5151  18.5549  18.8833
    19.1367  19.7148  22.3379  22.7026  30.3800  30.5286  31.8696  31.9616
    34.4933  34.5823

     occupation numbers 
     1.0000   1.0000   1.0000   1.0000   1.0000   1.0000   1.0000   1.0000
     1.0000   1.0000   1.0000   1.0000   1.0000   1.0000   1.0000   1.0008
     1.0249   0.4613   0.0000   0.0000   0.0000   0.0000   0.0000   0.0000
     0.0000   0.0000

          k =-0.1875 0.9375 0.5625 (   896 PWs)   bands (ev):

   -83.7232 -83.1764 -45.5175 -45.2727 -43.5267 -43.1989 -42.9573 -42.7971
    16.1281  16.4195  16.5148  16.8318  17.0184  17.4234  18.4443  19.0187
    19.0478  19.8728  23.9780  24.2473  28.3288  28.4981  31.7332  31.8368
    33.3740  33.4717

     occupation numbers 
     1.0000   1.0000   1.0000   1.0000   1.0000   1.0000   1.0000   1.0000
     1.0000   1.0000   1.0000   1.0000   1.0000   1.0000   1.0000   1.0063
     1.0092   0.1388   0.0000   0.0000   0.0000   0.0000   0.0000   0.0000
     0.0000   0.0000

          k = 0.9375 0.5625-0.1875 (   896 PWs)   bands (ev):

   -83.7232 -83.1764 -45.5073 -45.2867 -43.4958 -43.2156 -42.9989 -42.7659
    16.1286  16.4205  16.5138  16.8277  17.0227  17.4235  18.4423  19.0238
    19.0437  19.8728  23.9782  24.2471  28.3288  28.4981  31.7332  31.8368
    33.3741  33.4718

     occupation numbers 
     1.0000   1.0000   1.0000   1.0000   1.0000   1.0000   1.0000   1.0000
     1.0000   1.0000   1.0000   1.0000   1.0000   1.0000   1.0000   1.0067
     1.0087   0.1388   0.0000   0.0000   0.0000   0.0000   0.0000   0.0000
     0.0000   0.0000

          k =-0.1250 0.8750 0.5000 (   898 PWs)   bands (ev):

   -83.7225 -83.1757 -45.5194 -45.2743 -43.5291 -43.2008 -42.9585 -42.8002
    16.1904  16.4146  16.5928  16.8336  16.9945  17.4440  18.3864  18.9684
    19.0986  19.9343  25.4808  25.6755  26.5875  26.8081  32.0330  32.1365
    32.7564  32.8582

     occupation numbers 
     1.0000   1.0000   1.0000   1.0000   1.0000   1.0000   1.0000   1.0000
     1.0000   1.0000   1.0000   1.0000   1.0000   1.0000   1.0000   1.0031
     1.0167   0.0737   0.0000   0.0000   0.0000   0.0000   0.0000   0.0000
     0.0000   0.0000

          k =-0.1250 1.0000 0.6250 (   895 PWs)   bands (ev):

   -83.7220 -83.1753 -45.5210 -45.2746 -43.5316 -43.2020 -42.9555 -42.8042
    15.9096  16.2247  16.2943  16.8435  17.1977  17.7935  18.5976  19.1511
    19.1836  20.0005  24.2931  24.5277  29.6427  29.7813  30.8971  31.0133
    31.7997  31.9047

     occupation numbers 
     1.0000   1.0000   1.0000   1.0000   1.0000   1.0000   1.0000   1.0000
     1.0000   1.0000   1.0000   1.0000   1.0000   1.0000   1.0000   1.0285
     1.0380   0.0335   0.0000   0.0000   0.0000   0.0000   0.0000   0.0000
     0.0000   0.0000

          k = 1.0000 0.6250-0.1250 (   895 PWs)   bands (ev):

   -83.7220 -83.1753 -45.5076 -45.2929 -43.4914 -43.2226 -43.0108 -42.7636
    15.9102  16.2257  16.2925  16.8433  17.1987  17.7935  18.5966  19.1406
    19.1945  20.0003  24.2934  24.5275  29.6427  29.7813  30.8972  31.0133
    31.7996  31.9047

     occupation numbers 
     1.0000   1.0000   1.0000   1.0000   1.0000   1.0000   1.0000   1.0000
     1.0000   1.0000   1.0000   1.0000   1.0000   1.0000   1.0000   1.0258
     1.0414   0.0336   0.0000   0.0000   0.0000   0.0000   0.0000   0.0000
     0.0000   0.0000

          k =-0.0625 0.9375 0.5625 (   897 PWs)   bands (ev):

   -83.7213 -83.1745 -45.5228 -45.2762 -43.5340 -43.2035 -42.9568 -42.8079
    16.0150  16.3951  16.4302  16.9656  17.0185  17.5728  18.4761  19.0532
    19.2035  20.0556  26.0662  26.2501  27.8024  27.9635  30.3465  30.4840
    31.6304  31.7353

     occupation numbers 
     1.0000   1.0000   1.0000   1.0000   1.0000   1.0000   1.0000   1.0000
     1.0000   1.0000   1.0000   1.0000   1.0000   1.0000   1.0000   1.0098
     1.0443   0.0160   0.0000   0.0000   0.0000   0.0000   0.0000   0.0000
     0.0000   0.0000

          k = 0.9375 0.5625-0.0625 (   897 PWs)   bands (ev):

   -83.7213 -83.1745 -45.5112 -45.2922 -43.4986 -43.2229 -43.0050 -42.7713
    16.0153  16.4074  16.4178  16.9512  17.0339  17.5724  18.4744  19.0531
    19.2043  20.0557  26.0666  26.2498  27.8025  27.9635  30.3466  30.4840
    31.6303  31.7353

     occupation numbers 
     1.0000   1.0000   1.0000   1.0000   1.0000   1.0000   1.0000   1.0000
     1.0000   1.0000   1.0000   1.0000   1.0000   1.0000   1.0000   1.0098
     1.0446   0.0159   0.0000   0.0000   0.0000   0.0000   0.0000   0.0000
     0.0000   0.0000

          k = 0.0000 0.8750 0.5000 (   901 PWs)   bands (ev):

   -83.7217 -83.1749 -45.5215 -45.2755 -43.5323 -43.2024 -42.9575 -42.8053
    16.1033  16.4959  16.6029  16.7095  17.1967  17.3150  18.4345  19.0098
    19.1497  19.9986  25.7622  25.9677  27.7233  27.8855  30.3153  30.4476
    32.3111  32.4145

     occupation numbers 
     1.0000   1.0000   1.0000   1.0000   1.0000   1.0000   1.0000   1.0000
     1.0000   1.0000   1.0000   1.0000   1.0000   1.0000   1.0000   1.0056
     1.0282   0.0344   0.0000   0.0000   0.0000   0.0000   0.0000   0.0000
     0.0000   0.0000

          k = 0.8750 0.5000 0.0000 (   901 PWs)   bands (ev):

   -83.7217 -83.1749 -45.5124 -45.2882 -43.5038 -43.2195 -42.9946 -42.7761
    16.1034  16.4986  16.6086  16.6971  17.2070  17.3095  18.4326  19.0106
    19.1498  19.9986  25.7623  25.9675  27.7236  27.8853  30.3153  30.4477
    32.3110  32.4145

     occupation numbers 
     1.0000   1.0000   1.0000   1.0000   1.0000   1.0000   1.0000   1.0000
     1.0000   1.0000   1.0000   1.0000   1.0000   1.0000   1.0000   1.0056
     1.0282   0.0343   0.0000   0.0000   0.0000   0.0000   0.0000   0.0000
     0.0000   0.0000

          k =-1.0000 0.0000-0.3750 (   896 PWs)   bands (ev):

   -83.7209 -83.1741 -45.5241 -45.2769 -43.5358 -43.2049 -42.9559 -42.8100
    15.8552  16.1899  16.2520  16.8067  17.3229  17.9388  18.5887  19.1706
    19.2546  20.1109  25.6552  25.8192  29.3809  29.4010  29.5282  29.5846
    31.3618  31.4555

     occupation numbers 
     1.0000   1.0000   1.0000   1.0000   1.0000   1.0000   1.0000   1.0000
     1.0000   1.0000   1.0000   1.0000   1.0000   1.0000   1.0000   1.0340
     1.0618   0.0070   0.0000   0.0000   0.0000   0.0000   0.0000   0.0000
     0.0000   0.0000

          k = 0.0000-0.3750-1.0000 (   896 PWs)   bands (ev):

   -83.7209 -83.1741 -45.5100 -45.2962 -43.4931 -43.2269 -43.0147 -42.7666
    15.8557  16.1922  16.2491  16.8068  17.3236  17.9390  18.5878  19.1647
    19.2608  20.1108  25.6555  25.8190  29.3631  29.4325  29.5062  29.5928
    31.3617  31.4556

     occupation numbers 
     1.0000   1.0000   1.0000   1.0000   1.0000   1.0000   1.0000   1.0000
     1.0000   1.0000   1.0000   1.0000   1.0000   1.0000   1.0000   1.0323
     1.0639   0.0070   0.0000   0.0000   0.0000   0.0000   0.0000   0.0000
     0.0000   0.0000

          k =-1.0000 0.0000-0.5000 (   892 PWs)   bands (ev):

   -83.7209 -83.1741 -45.5239 -45.2768 -43.5358 -43.2043 -42.9563 -42.8109
    16.0191  16.4179  16.6550  16.7221  17.2678  17.3282  18.4407  19.0133
    19.2537  20.1105  27.3858  27.5019  27.5462  27.6549  29.6607  29.8030
    30.7910  30.9160

     occupation numbers 
     1.0000   1.0000   1.0000   1.0000   1.0000   1.0000   1.0000   1.0000
     1.0000   1.0000   1.0000   1.0000   1.0000   1.0000   1.0000   1.0058
     1.0615   0.0070   0.0000   0.0000   0.0000   0.0000   0.0000   0.0000
     0.0000   0.0000

     the Fermi energy is    19.7382 ev

!    total energy              =    -308.28151556 Ry
     estimated scf accuracy    <          1.7E-12 Ry
     smearing contrib. (-TS)   =       0.00013296 Ry
     internal energy E=F+TS    =    -308.28164852 Ry

     The total energy is F=E-TS. E is the sum of the following terms:
     one-electron contribution =    -131.31935113 Ry
     hartree contribution      =      75.98946319 Ry
     xc contribution           =     -30.23214200 Ry
     ewald contribution        =    -222.71961858 Ry

     total magnetization       =    -0.00     0.00    -0.63 Bohr mag/cell
     absolute magnetization    =     0.72 Bohr mag/cell

     convergence has been achieved in  13 iterations

     Writing all to output data dir ./Ni.save/
 
     init_run     :      0.90s CPU      1.01s WALL (       1 calls)
     electrons    :    109.97s CPU    110.53s WALL (       1 calls)

     Called by init_run:
     wfcinit      :      0.83s CPU      0.86s WALL (       1 calls)
     wfcinit:wfcr :      0.76s CPU      0.79s WALL (      22 calls)
     potinit      :      0.04s CPU      0.05s WALL (       1 calls)
     hinit0       :      0.02s CPU      0.04s WALL (       1 calls)

     Called by electrons:
     c_bands      :     88.39s CPU     88.73s WALL (      13 calls)
     sum_band     :     19.53s CPU     19.60s WALL (      13 calls)
     v_of_rho     :      0.53s CPU      0.53s WALL (      14 calls)
     v_h          :      0.01s CPU      0.01s WALL (      14 calls)
     v_xc         :      0.52s CPU      0.52s WALL (      14 calls)
     mix_rho      :      0.09s CPU      0.14s WALL (      13 calls)

     Called by c_bands:
     init_us_2    :      0.21s CPU      0.21s WALL (     594 calls)
     init_us_2:cp :      0.20s CPU      0.21s WALL (     594 calls)
     cegterg      :     34.49s CPU     34.73s WALL (     286 calls)

     Called by sum_band:
     sum_band:wei :      0.09s CPU      0.09s WALL (      13 calls)
     sum_band:loo :      5.12s CPU      5.17s WALL (      13 calls)
     sum_band:buf :      0.04s CPU      0.05s WALL (     286 calls)
     sum_band:ini :      0.10s CPU      0.10s WALL (     286 calls)

     Called by *egterg:
     cdiaghg      :      1.27s CPU      1.30s WALL (    1346 calls)
     cegterg:over :      1.22s CPU      1.23s WALL (    1060 calls)
     cegterg:upda :      0.81s CPU      0.81s WALL (    1060 calls)
     cegterg:last :      1.15s CPU      1.15s WALL (     666 calls)
     h_psi        :     30.24s CPU     30.47s WALL (    1368 calls)
     g_psi        :      0.05s CPU      0.05s WALL (    1060 calls)

     Called by h_psi:
     h_psi:calbec :      0.63s CPU      0.64s WALL (    1368 calls)
     vloc_psi     :     28.67s CPU     28.89s WALL (    1368 calls)
     add_vuspsi   :      0.86s CPU      0.86s WALL (    1368 calls)

     General routines
     calbec       :      0.63s CPU      0.63s WALL (    1368 calls)
     fft          :      0.15s CPU      0.16s WALL (     343 calls)
     ffts         :      0.03s CPU      0.03s WALL (      52 calls)
     fftw         :     28.93s CPU     29.17s WALL (  101644 calls)
 
     Parallel routines
 
     PWSCF        :   1m51.31s CPU   1m52.27s WALL

 
   This run was terminated on:  22:33:26  18May2023            

=------------------------------------------------------------------------------=
   JOB DONE.
=------------------------------------------------------------------------------=
Warning: ieee_invalid is signaling
Warning: ieee_underflow is signaling
Warning: ieee_inexact is signaling
FORTRAN STOP
Warning: ieee_invalid is signaling
Warning: ieee_underflow is signaling
Warning: ieee_inexact is signaling
FORTRAN STOP
Warning: ieee_invalid is signaling
Warning: ieee_underflow is signaling
Warning: ieee_inexact is signaling
FORTRAN STOP
Warning: ieee_invalid is signaling
Warning: ieee_underflow is signaling
Warning: ieee_inexact is signaling
FORTRAN STOP
Warning: ieee_invalid is signaling
Warning: ieee_underflow is signaling
Warning: ieee_inexact is signaling
FORTRAN STOP
Warning: ieee_invalid is signaling
Warning: ieee_underflow is signaling
Warning: ieee_inexact is signaling
FORTRAN STOP
Warning: ieee_invalid is signaling
Warning: ieee_underflow is signaling
Warning: ieee_inexact is signaling
FORTRAN STOP
Warning: ieee_invalid is signaling
Warning: ieee_underflow is signaling
Warning: ieee_inexact is signaling
FORTRAN STOP
Warning: ieee_invalid is signaling
Warning: ieee_underflow is signaling
Warning: ieee_inexact is signaling
FORTRAN STOP
Warning: ieee_invalid is signaling
Warning: ieee_underflow is signaling
Warning: ieee_inexact is signaling
FORTRAN STOP
Warning: ieee_invalid is signaling
Warning: ieee_underflow is signaling
Warning: ieee_inexact is signaling
FORTRAN STOP
Warning: ieee_invalid is signaling
Warning: ieee_underflow is signaling
Warning: ieee_inexact is signaling
FORTRAN STOP
Warning: ieee_invalid is signaling
Warning: ieee_underflow is signaling
Warning: ieee_inexact is signaling
FORTRAN STOP
Warning: ieee_invalid is signaling
Warning: ieee_underflow is signaling
Warning: ieee_inexact is signaling
FORTRAN STOP
Warning: ieee_invalid is signaling
Warning: ieee_underflow is signaling
Warning: ieee_inexact is signaling
FORTRAN STOP
Warning: ieee_invalid is signaling
Warning: ieee_underflow is signaling
Warning: ieee_inexact is signaling
FORTRAN STOP
