
     Program PWSCF v.7.1 starts on 20May2023 at 15:18:17 

     This program is part of the open-source Quantum ESPRESSO suite
     for quantum simulation of materials; please cite
         "P. Giannozzi et al., J. Phys.:Condens. Matter 21 395502 (2009);
         "P. Giannozzi et al., J. Phys.:Condens. Matter 29 465901 (2017);
         "P. Giannozzi et al., J. Chem. Phys. 152 154105 (2020);
          URL http://www.quantum-espresso.org", 
     in publications or presentations arising from this work. More details at
     http://www.quantum-espresso.org/quote

     Parallel version (MPI & OpenMP), running on      64 processor cores
     Number of MPI processes:                64
     Threads/MPI process:                     1

     MPI processes distributed on     1 nodes
     6045 MiB available memory on the printing compute node when the environment starts
 
     Reading input from Co.scf.in

     Current dimensions of program PWSCF are:
     Max number of different atomic species (ntypx) = 10
     Max number of k-points (npk) =  40000
     Max angular momentum in pseudopotentials (lmaxx) =  4
Error reading attribute index: expected integer, found *
 
     K-points division:     npool     =      64
     Subspace diagonalization in iterative solution of the eigenvalue problem:
     a serial algorithm will be used

 
     G-vector sticks info
     --------------------
     sticks:   dense  smooth     PW     G-vecs:    dense   smooth      PW
     Sum         559     559    163                17261    17261    2863
 
     Using Slab Decomposition
 


     bravais-lattice index     =            4
     lattice parameter (alat)  =       4.7377  a.u.
     unit-cell volume          =     149.4877 (a.u.)^3
     number of atoms/cell      =            2
     number of atomic types    =            1
     number of electrons       =        34.00
     number of Kohn-Sham states=           21
     kinetic-energy cutoff     =      90.0000  Ry
     charge density cutoff     =     360.0000  Ry
     scf convergence threshold =      1.0E-10
     mixing beta               =       0.7000
     number of iterations used =            8  plain     mixing
     Exchange-correlation= PBE
                           (   1   4   3   4   0   0   0)

     celldm(1)=   4.737700  celldm(2)=   0.000000  celldm(3)=   1.623200
     celldm(4)=   0.000000  celldm(5)=   0.000000  celldm(6)=   0.000000

     crystal axes: (cart. coord. in units of alat)
               a(1) = (   1.000000   0.000000   0.000000 )  
               a(2) = (  -0.500000   0.866025   0.000000 )  
               a(3) = (   0.000000   0.000000   1.623200 )  

     reciprocal axes: (cart. coord. in units 2 pi/alat)
               b(1) = (  1.000000  0.577350 -0.000000 )  
               b(2) = (  0.000000  1.154701  0.000000 )  
               b(3) = (  0.000000 -0.000000  0.616067 )  


     PseudoPot. # 1 for Co read from file:
     ./Co_ONCV_PBE_FR-1.0.upf
     MD5 check sum: 5200631a6ab1dc1b53d71ef650dcc2c4
     Pseudo is Norm-conserving, Zval = 17.0
     Generated using ONCVPSP code by D. R. Hamann
     Using radial grid of  602 points,  6 beta functions with: 
                l(1) =   0
                l(2) =   0
                l(3) =   1
                l(4) =   1
                l(5) =   2
                l(6) =   2

     atomic species   valence    mass     pseudopotential
        Co            17.00    58.93300     Co( 1.00)

     Starting magnetic structure 
     atomic species   magnetization
        Co           0.700

     24 Sym. Ops., with inversion, found (12 have fractional translation)


                                    s                        frac. trans.

      isym =  1     identity                                     

 cryst.   s( 1) = (     1          0          0      )
                  (     0          1          0      )
                  (     0          0          1      )

 cart.    s( 1) = (  1.0000000  0.0000000  0.0000000 )
                  (  0.0000000  1.0000000  0.0000000 )
                  (  0.0000000  0.0000000  1.0000000 )


      isym =  2     180 deg rotation - cart. axis [0,0,1]        

 cryst.   s( 2) = (    -1          0          0      )    f =(  0.0000000 )
                  (     0         -1          0      )       (  0.0000000 )
                  (     0          0          1      )       ( -0.5000000 )

 cart.    s( 2) = ( -1.0000000  0.0000000  0.0000000 )    f =(  0.0000000 )
                  (  0.0000000 -1.0000000  0.0000000 )       (  0.0000000 )
                  (  0.0000000  0.0000000  1.0000000 )       ( -0.8116000 )


      isym =  3     180 deg rotation - cart. axis [0,1,0]        

 cryst.   s( 3) = (    -1          0          0      )    f =(  0.0000000 )
                  (     1          1          0      )       (  0.0000000 )
                  (     0          0         -1      )       (  0.5000000 )

 cart.    s( 3) = ( -1.0000000  0.0000000  0.0000000 )    f =(  0.0000000 )
                  (  0.0000000  1.0000000  0.0000000 )       (  0.0000000 )
                  (  0.0000000  0.0000000 -1.0000000 )       (  0.8116000 )


      isym =  4     180 deg rotation - cart. axis [1,0,0]        

 cryst.   s( 4) = (     1          0          0      )
                  (    -1         -1          0      )
                  (     0          0         -1      )

 cart.    s( 4) = (  1.0000000  0.0000000  0.0000000 )
                  (  0.0000000 -1.0000000  0.0000000 )
                  (  0.0000000  0.0000000 -1.0000000 )


      isym =  5      60 deg rotation - cryst. axis [0,0,1]       

 cryst.   s( 5) = (     1          1          0      )    f =(  0.0000000 )
                  (    -1          0          0      )       (  0.0000000 )
                  (     0          0          1      )       ( -0.5000000 )

 cart.    s( 5) = (  0.5000000 -0.8660254  0.0000000 )    f =(  0.0000000 )
                  (  0.8660254  0.5000000  0.0000000 )       (  0.0000000 )
                  (  0.0000000  0.0000000  1.0000000 )       ( -0.8116000 )


      isym =  6      60 deg rotation - cryst. axis [0,0,-1]      

 cryst.   s( 6) = (     0         -1          0      )    f =(  0.0000000 )
                  (     1          1          0      )       ( -0.0000000 )
                  (     0          0          1      )       ( -0.5000000 )

 cart.    s( 6) = (  0.5000000  0.8660254  0.0000000 )    f =(  0.0000000 )
                  ( -0.8660254  0.5000000  0.0000000 )       ( -0.0000000 )
                  (  0.0000000  0.0000000  1.0000000 )       ( -0.8116000 )


      isym =  7     120 deg rotation - cryst. axis [0,0,1]       

 cryst.   s( 7) = (     0          1          0      )
                  (    -1         -1          0      )
                  (     0          0          1      )

 cart.    s( 7) = ( -0.5000000 -0.8660254  0.0000000 )
                  (  0.8660254 -0.5000000  0.0000000 )
                  (  0.0000000  0.0000000  1.0000000 )


      isym =  8     120 deg rotation - cryst. axis [0,0,-1]      

 cryst.   s( 8) = (    -1         -1          0      )
                  (     1          0          0      )
                  (     0          0          1      )

 cart.    s( 8) = ( -0.5000000  0.8660254  0.0000000 )
                  ( -0.8660254 -0.5000000  0.0000000 )
                  (  0.0000000  0.0000000  1.0000000 )


      isym =  9     180 deg rotation - cryst. axis [1,-1,0]      

 cryst.   s( 9) = (     0         -1          0      )    f =(  0.0000000 )
                  (    -1          0          0      )       (  0.0000000 )
                  (     0          0         -1      )       (  0.5000000 )

 cart.    s( 9) = (  0.5000000 -0.8660254  0.0000000 )    f =(  0.0000000 )
                  ( -0.8660254 -0.5000000  0.0000000 )       (  0.0000000 )
                  (  0.0000000  0.0000000 -1.0000000 )       (  0.8116000 )


      isym = 10     180 deg rotation - cryst. axis [2,1,0]       

 cryst.   s(10) = (     1          1          0      )    f =(  0.0000000 )
                  (     0         -1          0      )       ( -0.0000000 )
                  (     0          0         -1      )       (  0.5000000 )

 cart.    s(10) = (  0.5000000  0.8660254  0.0000000 )    f =(  0.0000000 )
                  (  0.8660254 -0.5000000  0.0000000 )       ( -0.0000000 )
                  (  0.0000000  0.0000000 -1.0000000 )       (  0.8116000 )


      isym = 11     180 deg rotation - cryst. axis [0,1,0]       

 cryst.   s(11) = (    -1         -1          0      )
                  (     0          1          0      )
                  (     0          0         -1      )

 cart.    s(11) = ( -0.5000000 -0.8660254  0.0000000 )
                  ( -0.8660254  0.5000000  0.0000000 )
                  (  0.0000000  0.0000000 -1.0000000 )


      isym = 12     180 deg rotation - cryst. axis [1,1,0]       

 cryst.   s(12) = (     0          1          0      )
                  (     1          0          0      )
                  (     0          0         -1      )

 cart.    s(12) = ( -0.5000000  0.8660254  0.0000000 )
                  (  0.8660254  0.5000000  0.0000000 )
                  (  0.0000000  0.0000000 -1.0000000 )


      isym = 13     inversion                                    

 cryst.   s(13) = (    -1          0          0      )
                  (     0         -1          0      )
                  (     0          0         -1      )

 cart.    s(13) = ( -1.0000000  0.0000000  0.0000000 )
                  (  0.0000000 -1.0000000  0.0000000 )
                  (  0.0000000  0.0000000 -1.0000000 )


      isym = 14     inv. 180 deg rotation - cart. axis [0,0,1]   

 cryst.   s(14) = (     1          0          0      )    f =(  0.0000000 )
                  (     0          1          0      )       (  0.0000000 )
                  (     0          0         -1      )       (  0.5000000 )

 cart.    s(14) = (  1.0000000  0.0000000  0.0000000 )    f =(  0.0000000 )
                  (  0.0000000  1.0000000  0.0000000 )       (  0.0000000 )
                  (  0.0000000  0.0000000 -1.0000000 )       (  0.8116000 )


      isym = 15     inv. 180 deg rotation - cart. axis [0,1,0]   

 cryst.   s(15) = (     1          0          0      )    f =(  0.0000000 )
                  (    -1         -1          0      )       (  0.0000000 )
                  (     0          0          1      )       ( -0.5000000 )

 cart.    s(15) = (  1.0000000  0.0000000  0.0000000 )    f =(  0.0000000 )
                  (  0.0000000 -1.0000000  0.0000000 )       (  0.0000000 )
                  (  0.0000000  0.0000000  1.0000000 )       ( -0.8116000 )


      isym = 16     inv. 180 deg rotation - cart. axis [1,0,0]   

 cryst.   s(16) = (    -1          0          0      )
                  (     1          1          0      )
                  (     0          0          1      )

 cart.    s(16) = ( -1.0000000  0.0000000  0.0000000 )
                  (  0.0000000  1.0000000  0.0000000 )
                  (  0.0000000  0.0000000  1.0000000 )


      isym = 17     inv.  60 deg rotation - cryst. axis [0,0,1]  

 cryst.   s(17) = (    -1         -1          0      )    f =(  0.0000000 )
                  (     1          0          0      )       (  0.0000000 )
                  (     0          0         -1      )       (  0.5000000 )

 cart.    s(17) = ( -0.5000000  0.8660254  0.0000000 )    f =(  0.0000000 )
                  ( -0.8660254 -0.5000000  0.0000000 )       (  0.0000000 )
                  (  0.0000000  0.0000000 -1.0000000 )       (  0.8116000 )


      isym = 18     inv.  60 deg rotation - cryst. axis [0,0,-1] 

 cryst.   s(18) = (     0          1          0      )    f =(  0.0000000 )
                  (    -1         -1          0      )       ( -0.0000000 )
                  (     0          0         -1      )       (  0.5000000 )

 cart.    s(18) = ( -0.5000000 -0.8660254  0.0000000 )    f =(  0.0000000 )
                  (  0.8660254 -0.5000000  0.0000000 )       ( -0.0000000 )
                  (  0.0000000  0.0000000 -1.0000000 )       (  0.8116000 )


      isym = 19     inv. 120 deg rotation - cryst. axis [0,0,1]  

 cryst.   s(19) = (     0         -1          0      )
                  (     1          1          0      )
                  (     0          0         -1      )

 cart.    s(19) = (  0.5000000  0.8660254  0.0000000 )
                  ( -0.8660254  0.5000000  0.0000000 )
                  (  0.0000000  0.0000000 -1.0000000 )


      isym = 20     inv. 120 deg rotation - cryst. axis [0,0,-1] 

 cryst.   s(20) = (     1          1          0      )
                  (    -1          0          0      )
                  (     0          0         -1      )

 cart.    s(20) = (  0.5000000 -0.8660254  0.0000000 )
                  (  0.8660254  0.5000000  0.0000000 )
                  (  0.0000000  0.0000000 -1.0000000 )


      isym = 21     inv. 180 deg rotation - cryst. axis [1,-1,0] 

 cryst.   s(21) = (     0          1          0      )    f =(  0.0000000 )
                  (     1          0          0      )       (  0.0000000 )
                  (     0          0          1      )       ( -0.5000000 )

 cart.    s(21) = ( -0.5000000  0.8660254  0.0000000 )    f =(  0.0000000 )
                  (  0.8660254  0.5000000  0.0000000 )       (  0.0000000 )
                  (  0.0000000  0.0000000  1.0000000 )       ( -0.8116000 )


      isym = 22     inv. 180 deg rotation - cryst. axis [2,1,0]  

 cryst.   s(22) = (    -1         -1          0      )    f =(  0.0000000 )
                  (     0          1          0      )       ( -0.0000000 )
                  (     0          0          1      )       ( -0.5000000 )

 cart.    s(22) = ( -0.5000000 -0.8660254  0.0000000 )    f =(  0.0000000 )
                  ( -0.8660254  0.5000000  0.0000000 )       ( -0.0000000 )
                  (  0.0000000  0.0000000  1.0000000 )       ( -0.8116000 )


      isym = 23     inv. 180 deg rotation - cryst. axis [0,1,0]  

 cryst.   s(23) = (     1          1          0      )
                  (     0         -1          0      )
                  (     0          0          1      )

 cart.    s(23) = (  0.5000000  0.8660254  0.0000000 )
                  (  0.8660254 -0.5000000  0.0000000 )
                  (  0.0000000  0.0000000  1.0000000 )


      isym = 24     inv. 180 deg rotation - cryst. axis [1,1,0]  

 cryst.   s(24) = (     0         -1          0      )
                  (    -1          0          0      )
                  (     0          0          1      )

 cart.    s(24) = (  0.5000000 -0.8660254  0.0000000 )
                  ( -0.8660254 -0.5000000  0.0000000 )
                  (  0.0000000  0.0000000  1.0000000 )


     point group D_6h(6/mmm)
     there are 12 classes
     the character table:

       E     2C6   2C3   C2    3C2'  3C2'' i     2S3   2S6   s_h   3s_d  3s_v 
A_1g   1.00  1.00  1.00  1.00  1.00  1.00  1.00  1.00  1.00  1.00  1.00  1.00
A_2g   1.00  1.00  1.00  1.00 -1.00 -1.00  1.00  1.00  1.00  1.00 -1.00 -1.00
B_1g   1.00 -1.00  1.00 -1.00  1.00 -1.00  1.00 -1.00  1.00 -1.00  1.00 -1.00
B_2g   1.00 -1.00  1.00 -1.00 -1.00  1.00  1.00 -1.00  1.00 -1.00 -1.00  1.00
E_1g   2.00  1.00 -1.00 -2.00  0.00  0.00  2.00  1.00 -1.00 -2.00  0.00  0.00
E_2g   2.00 -1.00 -1.00  2.00  0.00  0.00  2.00 -1.00 -1.00  2.00  0.00  0.00
A_1u   1.00  1.00  1.00  1.00  1.00  1.00 -1.00 -1.00 -1.00 -1.00 -1.00 -1.00
A_2u   1.00  1.00  1.00  1.00 -1.00 -1.00 -1.00 -1.00 -1.00 -1.00  1.00  1.00
B_1u   1.00 -1.00  1.00 -1.00  1.00 -1.00 -1.00  1.00 -1.00  1.00 -1.00  1.00
B_2u   1.00 -1.00  1.00 -1.00 -1.00  1.00 -1.00  1.00 -1.00  1.00  1.00 -1.00
E_1u   2.00  1.00 -1.00 -2.00  0.00  0.00 -2.00 -1.00  1.00  2.00  0.00  0.00
E_2u   2.00 -1.00 -1.00  2.00  0.00  0.00 -2.00  1.00  1.00 -2.00  0.00  0.00

     the symmetry operations in each class and the name of the first element:

     E        1
          identity                                               
     2C6      5    6
           60 deg rotation - cryst. axis [0,0,1]                 
     2C3      7    8
          120 deg rotation - cryst. axis [0,0,1]                 
     C2       2
          180 deg rotation - cart. axis [0,0,1]                  
     3C2'     4   12   11
          180 deg rotation - cart. axis [1,0,0]                  
     3C2''    3    9   10
          180 deg rotation - cart. axis [0,1,0]                  
     i       13
          inversion                                              
     2S3     17   18
          inv.  60 deg rotation - cryst. axis [0,0,1]            
     2S6     19   20
          inv. 120 deg rotation - cryst. axis [0,0,1]            
     s_h     14
          inv. 180 deg rotation - cart. axis [0,0,1]             
     3s_d    16   24   23
          inv. 180 deg rotation - cart. axis [1,0,0]             
     3s_v    15   21   22
          inv. 180 deg rotation - cart. axis [0,1,0]             

   Cartesian axes

     site n.     atom                  positions (alat units)
         1           Co  tau(   1) = (  -0.0000000   0.5773503   0.4058000  )
         2           Co  tau(   2) = (   0.5000000   0.2886751   1.2174000  )

   Crystallographic axes

     site n.     atom                  positions (cryst. coord.)
         1           Co  tau(   1) = (  0.3333333  0.6666667  0.2500000  )
         2           Co  tau(   2) = (  0.6666667  0.3333333  0.7500000  )

     number of k points=   270  Marzari-Vanderbilt smearing, width (Ry)=  0.0200
                       cart. coord. in units 2pi/alat
        k(    1) = (   0.0000000   0.0000000   0.0000000), wk =   0.0002441
        k(    2) = (   0.0000000   0.0000000   0.0385042), wk =   0.0004883
        k(    3) = (   0.0000000   0.0000000   0.0770084), wk =   0.0004883
        k(    4) = (   0.0000000   0.0000000   0.1155126), wk =   0.0004883
        k(    5) = (   0.0000000   0.0000000   0.1540168), wk =   0.0004883
        k(    6) = (   0.0000000   0.0000000   0.1925209), wk =   0.0004883
        k(    7) = (   0.0000000   0.0000000   0.2310251), wk =   0.0004883
        k(    8) = (   0.0000000   0.0000000   0.2695293), wk =   0.0004883
        k(    9) = (   0.0000000   0.0000000  -0.3080335), wk =   0.0002441
        k(   10) = (   0.0000000   0.0721688   0.0000000), wk =   0.0014648
        k(   11) = (   0.0000000   0.0721688   0.0385042), wk =   0.0029297
        k(   12) = (   0.0000000   0.0721688   0.0770084), wk =   0.0029297
        k(   13) = (   0.0000000   0.0721688   0.1155126), wk =   0.0029297
        k(   14) = (   0.0000000   0.0721688   0.1540168), wk =   0.0029297
        k(   15) = (   0.0000000   0.0721688   0.1925209), wk =   0.0029297
        k(   16) = (   0.0000000   0.0721688   0.2310251), wk =   0.0029297
        k(   17) = (   0.0000000   0.0721688   0.2695293), wk =   0.0029297
        k(   18) = (   0.0000000   0.0721688  -0.3080335), wk =   0.0014648
        k(   19) = (   0.0000000   0.1443376   0.0000000), wk =   0.0014648
        k(   20) = (   0.0000000   0.1443376   0.0385042), wk =   0.0029297
        k(   21) = (   0.0000000   0.1443376   0.0770084), wk =   0.0029297
        k(   22) = (   0.0000000   0.1443376   0.1155126), wk =   0.0029297
        k(   23) = (   0.0000000   0.1443376   0.1540168), wk =   0.0029297
        k(   24) = (   0.0000000   0.1443376   0.1925209), wk =   0.0029297
        k(   25) = (   0.0000000   0.1443376   0.2310251), wk =   0.0029297
        k(   26) = (   0.0000000   0.1443376   0.2695293), wk =   0.0029297
        k(   27) = (   0.0000000   0.1443376  -0.3080335), wk =   0.0014648
        k(   28) = (   0.0000000   0.2165064   0.0000000), wk =   0.0014648
        k(   29) = (   0.0000000   0.2165064   0.0385042), wk =   0.0029297
        k(   30) = (   0.0000000   0.2165064   0.0770084), wk =   0.0029297
        k(   31) = (   0.0000000   0.2165064   0.1155126), wk =   0.0029297
        k(   32) = (   0.0000000   0.2165064   0.1540168), wk =   0.0029297
        k(   33) = (   0.0000000   0.2165064   0.1925209), wk =   0.0029297
        k(   34) = (   0.0000000   0.2165064   0.2310251), wk =   0.0029297
        k(   35) = (   0.0000000   0.2165064   0.2695293), wk =   0.0029297
        k(   36) = (   0.0000000   0.2165064  -0.3080335), wk =   0.0014648
        k(   37) = (   0.0000000   0.2886751   0.0000000), wk =   0.0014648
        k(   38) = (   0.0000000   0.2886751   0.0385042), wk =   0.0029297
        k(   39) = (   0.0000000   0.2886751   0.0770084), wk =   0.0029297
        k(   40) = (   0.0000000   0.2886751   0.1155126), wk =   0.0029297
        k(   41) = (   0.0000000   0.2886751   0.1540168), wk =   0.0029297
        k(   42) = (   0.0000000   0.2886751   0.1925209), wk =   0.0029297
        k(   43) = (   0.0000000   0.2886751   0.2310251), wk =   0.0029297
        k(   44) = (   0.0000000   0.2886751   0.2695293), wk =   0.0029297
        k(   45) = (   0.0000000   0.2886751  -0.3080335), wk =   0.0014648
        k(   46) = (   0.0000000   0.3608439   0.0000000), wk =   0.0014648
        k(   47) = (   0.0000000   0.3608439   0.0385042), wk =   0.0029297
        k(   48) = (   0.0000000   0.3608439   0.0770084), wk =   0.0029297
        k(   49) = (   0.0000000   0.3608439   0.1155126), wk =   0.0029297
        k(   50) = (   0.0000000   0.3608439   0.1540168), wk =   0.0029297
        k(   51) = (   0.0000000   0.3608439   0.1925209), wk =   0.0029297
        k(   52) = (   0.0000000   0.3608439   0.2310251), wk =   0.0029297
        k(   53) = (   0.0000000   0.3608439   0.2695293), wk =   0.0029297
        k(   54) = (   0.0000000   0.3608439  -0.3080335), wk =   0.0014648
        k(   55) = (   0.0000000   0.4330127   0.0000000), wk =   0.0014648
        k(   56) = (   0.0000000   0.4330127   0.0385042), wk =   0.0029297
        k(   57) = (   0.0000000   0.4330127   0.0770084), wk =   0.0029297
        k(   58) = (   0.0000000   0.4330127   0.1155126), wk =   0.0029297
        k(   59) = (   0.0000000   0.4330127   0.1540168), wk =   0.0029297
        k(   60) = (   0.0000000   0.4330127   0.1925209), wk =   0.0029297
        k(   61) = (   0.0000000   0.4330127   0.2310251), wk =   0.0029297
        k(   62) = (   0.0000000   0.4330127   0.2695293), wk =   0.0029297
        k(   63) = (   0.0000000   0.4330127  -0.3080335), wk =   0.0014648
        k(   64) = (   0.0000000   0.5051815   0.0000000), wk =   0.0014648
        k(   65) = (   0.0000000   0.5051815   0.0385042), wk =   0.0029297
        k(   66) = (   0.0000000   0.5051815   0.0770084), wk =   0.0029297
        k(   67) = (   0.0000000   0.5051815   0.1155126), wk =   0.0029297
        k(   68) = (   0.0000000   0.5051815   0.1540168), wk =   0.0029297
        k(   69) = (   0.0000000   0.5051815   0.1925209), wk =   0.0029297
        k(   70) = (   0.0000000   0.5051815   0.2310251), wk =   0.0029297
        k(   71) = (   0.0000000   0.5051815   0.2695293), wk =   0.0029297
        k(   72) = (   0.0000000   0.5051815  -0.3080335), wk =   0.0014648
        k(   73) = (   0.0000000  -0.5773503   0.0000000), wk =   0.0007324
        k(   74) = (   0.0000000  -0.5773503   0.0385042), wk =   0.0014648
        k(   75) = (   0.0000000  -0.5773503   0.0770084), wk =   0.0014648
        k(   76) = (   0.0000000  -0.5773503   0.1155126), wk =   0.0014648
        k(   77) = (   0.0000000  -0.5773503   0.1540168), wk =   0.0014648
        k(   78) = (   0.0000000  -0.5773503   0.1925209), wk =   0.0014648
        k(   79) = (   0.0000000  -0.5773503   0.2310251), wk =   0.0014648
        k(   80) = (   0.0000000  -0.5773503   0.2695293), wk =   0.0014648
        k(   81) = (   0.0000000  -0.5773503  -0.3080335), wk =   0.0007324
        k(   82) = (   0.0625000   0.1082532   0.0000000), wk =   0.0014648
        k(   83) = (   0.0625000   0.1082532   0.0385042), wk =   0.0029297
        k(   84) = (   0.0625000   0.1082532   0.0770084), wk =   0.0029297
        k(   85) = (   0.0625000   0.1082532   0.1155126), wk =   0.0029297
        k(   86) = (   0.0625000   0.1082532   0.1540168), wk =   0.0029297
        k(   87) = (   0.0625000   0.1082532   0.1925209), wk =   0.0029297
        k(   88) = (   0.0625000   0.1082532   0.2310251), wk =   0.0029297
        k(   89) = (   0.0625000   0.1082532   0.2695293), wk =   0.0029297
        k(   90) = (   0.0625000   0.1082532  -0.3080335), wk =   0.0014648
        k(   91) = (   0.0625000   0.1804220   0.0000000), wk =   0.0029297
        k(   92) = (   0.0625000   0.1804220   0.0385042), wk =   0.0058594
        k(   93) = (   0.0625000   0.1804220   0.0770084), wk =   0.0058594
        k(   94) = (   0.0625000   0.1804220   0.1155126), wk =   0.0058594
        k(   95) = (   0.0625000   0.1804220   0.1540168), wk =   0.0058594
        k(   96) = (   0.0625000   0.1804220   0.1925209), wk =   0.0058594
        k(   97) = (   0.0625000   0.1804220   0.2310251), wk =   0.0058594
        k(   98) = (   0.0625000   0.1804220   0.2695293), wk =   0.0058594
        k(   99) = (   0.0625000   0.1804220  -0.3080335), wk =   0.0029297
        k(  100) = (   0.0625000   0.2525907   0.0000000), wk =   0.0029297
        k(  101) = (   0.0625000   0.2525907   0.0385042), wk =   0.0058594
        k(  102) = (   0.0625000   0.2525907   0.0770084), wk =   0.0058594
        k(  103) = (   0.0625000   0.2525907   0.1155126), wk =   0.0058594
        k(  104) = (   0.0625000   0.2525907   0.1540168), wk =   0.0058594
        k(  105) = (   0.0625000   0.2525907   0.1925209), wk =   0.0058594
        k(  106) = (   0.0625000   0.2525907   0.2310251), wk =   0.0058594
        k(  107) = (   0.0625000   0.2525907   0.2695293), wk =   0.0058594
        k(  108) = (   0.0625000   0.2525907  -0.3080335), wk =   0.0029297
        k(  109) = (   0.0625000   0.3247595   0.0000000), wk =   0.0029297
        k(  110) = (   0.0625000   0.3247595   0.0385042), wk =   0.0058594
        k(  111) = (   0.0625000   0.3247595   0.0770084), wk =   0.0058594
        k(  112) = (   0.0625000   0.3247595   0.1155126), wk =   0.0058594
        k(  113) = (   0.0625000   0.3247595   0.1540168), wk =   0.0058594
        k(  114) = (   0.0625000   0.3247595   0.1925209), wk =   0.0058594
        k(  115) = (   0.0625000   0.3247595   0.2310251), wk =   0.0058594
        k(  116) = (   0.0625000   0.3247595   0.2695293), wk =   0.0058594
        k(  117) = (   0.0625000   0.3247595  -0.3080335), wk =   0.0029297
        k(  118) = (   0.0625000   0.3969283   0.0000000), wk =   0.0029297
        k(  119) = (   0.0625000   0.3969283   0.0385042), wk =   0.0058594
        k(  120) = (   0.0625000   0.3969283   0.0770084), wk =   0.0058594
        k(  121) = (   0.0625000   0.3969283   0.1155126), wk =   0.0058594
        k(  122) = (   0.0625000   0.3969283   0.1540168), wk =   0.0058594
        k(  123) = (   0.0625000   0.3969283   0.1925209), wk =   0.0058594
        k(  124) = (   0.0625000   0.3969283   0.2310251), wk =   0.0058594
        k(  125) = (   0.0625000   0.3969283   0.2695293), wk =   0.0058594
        k(  126) = (   0.0625000   0.3969283  -0.3080335), wk =   0.0029297
        k(  127) = (   0.0625000   0.4690971   0.0000000), wk =   0.0029297
        k(  128) = (   0.0625000   0.4690971   0.0385042), wk =   0.0058594
        k(  129) = (   0.0625000   0.4690971   0.0770084), wk =   0.0058594
        k(  130) = (   0.0625000   0.4690971   0.1155126), wk =   0.0058594
        k(  131) = (   0.0625000   0.4690971   0.1540168), wk =   0.0058594
        k(  132) = (   0.0625000   0.4690971   0.1925209), wk =   0.0058594
        k(  133) = (   0.0625000   0.4690971   0.2310251), wk =   0.0058594
        k(  134) = (   0.0625000   0.4690971   0.2695293), wk =   0.0058594
        k(  135) = (   0.0625000   0.4690971  -0.3080335), wk =   0.0029297
        k(  136) = (   0.0625000   0.5412659   0.0000000), wk =   0.0029297
        k(  137) = (   0.0625000   0.5412659   0.0385042), wk =   0.0058594
        k(  138) = (   0.0625000   0.5412659   0.0770084), wk =   0.0058594
        k(  139) = (   0.0625000   0.5412659   0.1155126), wk =   0.0058594
        k(  140) = (   0.0625000   0.5412659   0.1540168), wk =   0.0058594
        k(  141) = (   0.0625000   0.5412659   0.1925209), wk =   0.0058594
        k(  142) = (   0.0625000   0.5412659   0.2310251), wk =   0.0058594
        k(  143) = (   0.0625000   0.5412659   0.2695293), wk =   0.0058594
        k(  144) = (   0.0625000   0.5412659  -0.3080335), wk =   0.0029297
        k(  145) = (   0.1250000   0.2165064   0.0000000), wk =   0.0014648
        k(  146) = (   0.1250000   0.2165064   0.0385042), wk =   0.0029297
        k(  147) = (   0.1250000   0.2165064   0.0770084), wk =   0.0029297
        k(  148) = (   0.1250000   0.2165064   0.1155126), wk =   0.0029297
        k(  149) = (   0.1250000   0.2165064   0.1540168), wk =   0.0029297
        k(  150) = (   0.1250000   0.2165064   0.1925209), wk =   0.0029297
        k(  151) = (   0.1250000   0.2165064   0.2310251), wk =   0.0029297
        k(  152) = (   0.1250000   0.2165064   0.2695293), wk =   0.0029297
        k(  153) = (   0.1250000   0.2165064  -0.3080335), wk =   0.0014648
        k(  154) = (   0.1250000   0.2886751   0.0000000), wk =   0.0029297
        k(  155) = (   0.1250000   0.2886751   0.0385042), wk =   0.0058594
        k(  156) = (   0.1250000   0.2886751   0.0770084), wk =   0.0058594
        k(  157) = (   0.1250000   0.2886751   0.1155126), wk =   0.0058594
        k(  158) = (   0.1250000   0.2886751   0.1540168), wk =   0.0058594
        k(  159) = (   0.1250000   0.2886751   0.1925209), wk =   0.0058594
        k(  160) = (   0.1250000   0.2886751   0.2310251), wk =   0.0058594
        k(  161) = (   0.1250000   0.2886751   0.2695293), wk =   0.0058594
        k(  162) = (   0.1250000   0.2886751  -0.3080335), wk =   0.0029297
        k(  163) = (   0.1250000   0.3608439   0.0000000), wk =   0.0029297
        k(  164) = (   0.1250000   0.3608439   0.0385042), wk =   0.0058594
        k(  165) = (   0.1250000   0.3608439   0.0770084), wk =   0.0058594
        k(  166) = (   0.1250000   0.3608439   0.1155126), wk =   0.0058594
        k(  167) = (   0.1250000   0.3608439   0.1540168), wk =   0.0058594
        k(  168) = (   0.1250000   0.3608439   0.1925209), wk =   0.0058594
        k(  169) = (   0.1250000   0.3608439   0.2310251), wk =   0.0058594
        k(  170) = (   0.1250000   0.3608439   0.2695293), wk =   0.0058594
        k(  171) = (   0.1250000   0.3608439  -0.3080335), wk =   0.0029297
        k(  172) = (   0.1250000   0.4330127   0.0000000), wk =   0.0029297
        k(  173) = (   0.1250000   0.4330127   0.0385042), wk =   0.0058594
        k(  174) = (   0.1250000   0.4330127   0.0770084), wk =   0.0058594
        k(  175) = (   0.1250000   0.4330127   0.1155126), wk =   0.0058594
        k(  176) = (   0.1250000   0.4330127   0.1540168), wk =   0.0058594
        k(  177) = (   0.1250000   0.4330127   0.1925209), wk =   0.0058594
        k(  178) = (   0.1250000   0.4330127   0.2310251), wk =   0.0058594
        k(  179) = (   0.1250000   0.4330127   0.2695293), wk =   0.0058594
        k(  180) = (   0.1250000   0.4330127  -0.3080335), wk =   0.0029297
        k(  181) = (   0.1250000   0.5051815   0.0000000), wk =   0.0029297
        k(  182) = (   0.1250000   0.5051815   0.0385042), wk =   0.0058594
        k(  183) = (   0.1250000   0.5051815   0.0770084), wk =   0.0058594
        k(  184) = (   0.1250000   0.5051815   0.1155126), wk =   0.0058594
        k(  185) = (   0.1250000   0.5051815   0.1540168), wk =   0.0058594
        k(  186) = (   0.1250000   0.5051815   0.1925209), wk =   0.0058594
        k(  187) = (   0.1250000   0.5051815   0.2310251), wk =   0.0058594
        k(  188) = (   0.1250000   0.5051815   0.2695293), wk =   0.0058594
        k(  189) = (   0.1250000   0.5051815  -0.3080335), wk =   0.0029297
        k(  190) = (   0.1250000   0.5773503   0.0000000), wk =   0.0014648
        k(  191) = (   0.1250000   0.5773503   0.0385042), wk =   0.0029297
        k(  192) = (   0.1250000   0.5773503   0.0770084), wk =   0.0029297
        k(  193) = (   0.1250000   0.5773503   0.1155126), wk =   0.0029297
        k(  194) = (   0.1250000   0.5773503   0.1540168), wk =   0.0029297
        k(  195) = (   0.1250000   0.5773503   0.1925209), wk =   0.0029297
        k(  196) = (   0.1250000   0.5773503   0.2310251), wk =   0.0029297
        k(  197) = (   0.1250000   0.5773503   0.2695293), wk =   0.0029297
        k(  198) = (   0.1250000   0.5773503  -0.3080335), wk =   0.0014648
        k(  199) = (   0.1875000   0.3247595   0.0000000), wk =   0.0014648
        k(  200) = (   0.1875000   0.3247595   0.0385042), wk =   0.0029297
        k(  201) = (   0.1875000   0.3247595   0.0770084), wk =   0.0029297
        k(  202) = (   0.1875000   0.3247595   0.1155126), wk =   0.0029297
        k(  203) = (   0.1875000   0.3247595   0.1540168), wk =   0.0029297
        k(  204) = (   0.1875000   0.3247595   0.1925209), wk =   0.0029297
        k(  205) = (   0.1875000   0.3247595   0.2310251), wk =   0.0029297
        k(  206) = (   0.1875000   0.3247595   0.2695293), wk =   0.0029297
        k(  207) = (   0.1875000   0.3247595  -0.3080335), wk =   0.0014648
        k(  208) = (   0.1875000   0.3969283   0.0000000), wk =   0.0029297
        k(  209) = (   0.1875000   0.3969283   0.0385042), wk =   0.0058594
        k(  210) = (   0.1875000   0.3969283   0.0770084), wk =   0.0058594
        k(  211) = (   0.1875000   0.3969283   0.1155126), wk =   0.0058594
        k(  212) = (   0.1875000   0.3969283   0.1540168), wk =   0.0058594
        k(  213) = (   0.1875000   0.3969283   0.1925209), wk =   0.0058594
        k(  214) = (   0.1875000   0.3969283   0.2310251), wk =   0.0058594
        k(  215) = (   0.1875000   0.3969283   0.2695293), wk =   0.0058594
        k(  216) = (   0.1875000   0.3969283  -0.3080335), wk =   0.0029297
        k(  217) = (   0.1875000   0.4690971   0.0000000), wk =   0.0029297
        k(  218) = (   0.1875000   0.4690971   0.0385042), wk =   0.0058594
        k(  219) = (   0.1875000   0.4690971   0.0770084), wk =   0.0058594
        k(  220) = (   0.1875000   0.4690971   0.1155126), wk =   0.0058594
        k(  221) = (   0.1875000   0.4690971   0.1540168), wk =   0.0058594
        k(  222) = (   0.1875000   0.4690971   0.1925209), wk =   0.0058594
        k(  223) = (   0.1875000   0.4690971   0.2310251), wk =   0.0058594
        k(  224) = (   0.1875000   0.4690971   0.2695293), wk =   0.0058594
        k(  225) = (   0.1875000   0.4690971  -0.3080335), wk =   0.0029297
        k(  226) = (   0.1875000   0.5412659   0.0000000), wk =   0.0029297
        k(  227) = (   0.1875000   0.5412659   0.0385042), wk =   0.0058594
        k(  228) = (   0.1875000   0.5412659   0.0770084), wk =   0.0058594
        k(  229) = (   0.1875000   0.5412659   0.1155126), wk =   0.0058594
        k(  230) = (   0.1875000   0.5412659   0.1540168), wk =   0.0058594
        k(  231) = (   0.1875000   0.5412659   0.1925209), wk =   0.0058594
        k(  232) = (   0.1875000   0.5412659   0.2310251), wk =   0.0058594
        k(  233) = (   0.1875000   0.5412659   0.2695293), wk =   0.0058594
        k(  234) = (   0.1875000   0.5412659  -0.3080335), wk =   0.0029297
        k(  235) = (   0.2500000   0.4330127   0.0000000), wk =   0.0014648
        k(  236) = (   0.2500000   0.4330127   0.0385042), wk =   0.0029297
        k(  237) = (   0.2500000   0.4330127   0.0770084), wk =   0.0029297
        k(  238) = (   0.2500000   0.4330127   0.1155126), wk =   0.0029297
        k(  239) = (   0.2500000   0.4330127   0.1540168), wk =   0.0029297
        k(  240) = (   0.2500000   0.4330127   0.1925209), wk =   0.0029297
        k(  241) = (   0.2500000   0.4330127   0.2310251), wk =   0.0029297
        k(  242) = (   0.2500000   0.4330127   0.2695293), wk =   0.0029297
        k(  243) = (   0.2500000   0.4330127  -0.3080335), wk =   0.0014648
        k(  244) = (   0.2500000   0.5051815   0.0000000), wk =   0.0029297
        k(  245) = (   0.2500000   0.5051815   0.0385042), wk =   0.0058594
        k(  246) = (   0.2500000   0.5051815   0.0770084), wk =   0.0058594
        k(  247) = (   0.2500000   0.5051815   0.1155126), wk =   0.0058594
        k(  248) = (   0.2500000   0.5051815   0.1540168), wk =   0.0058594
        k(  249) = (   0.2500000   0.5051815   0.1925209), wk =   0.0058594
        k(  250) = (   0.2500000   0.5051815   0.2310251), wk =   0.0058594
        k(  251) = (   0.2500000   0.5051815   0.2695293), wk =   0.0058594
        k(  252) = (   0.2500000   0.5051815  -0.3080335), wk =   0.0029297
        k(  253) = (   0.2500000   0.5773503   0.0000000), wk =   0.0014648
        k(  254) = (   0.2500000   0.5773503   0.0385042), wk =   0.0029297
        k(  255) = (   0.2500000   0.5773503   0.0770084), wk =   0.0029297
        k(  256) = (   0.2500000   0.5773503   0.1155126), wk =   0.0029297
        k(  257) = (   0.2500000   0.5773503   0.1540168), wk =   0.0029297
        k(  258) = (   0.2500000   0.5773503   0.1925209), wk =   0.0029297
        k(  259) = (   0.2500000   0.5773503   0.2310251), wk =   0.0029297
        k(  260) = (   0.2500000   0.5773503   0.2695293), wk =   0.0029297
        k(  261) = (   0.2500000   0.5773503  -0.3080335), wk =   0.0014648
        k(  262) = (   0.3125000   0.5412659   0.0000000), wk =   0.0014648
        k(  263) = (   0.3125000   0.5412659   0.0385042), wk =   0.0029297
        k(  264) = (   0.3125000   0.5412659   0.0770084), wk =   0.0029297
        k(  265) = (   0.3125000   0.5412659   0.1155126), wk =   0.0029297
        k(  266) = (   0.3125000   0.5412659   0.1540168), wk =   0.0029297
        k(  267) = (   0.3125000   0.5412659   0.1925209), wk =   0.0029297
        k(  268) = (   0.3125000   0.5412659   0.2310251), wk =   0.0029297
        k(  269) = (   0.3125000   0.5412659   0.2695293), wk =   0.0029297
        k(  270) = (   0.3125000   0.5412659  -0.3080335), wk =   0.0014648

                       cryst. coord.
        k(    1) = (   0.0000000   0.0000000   0.0000000), wk =   0.0002441
        k(    2) = (   0.0000000   0.0000000   0.0625000), wk =   0.0004883
        k(    3) = (   0.0000000   0.0000000   0.1250000), wk =   0.0004883
        k(    4) = (   0.0000000   0.0000000   0.1875000), wk =   0.0004883
        k(    5) = (   0.0000000   0.0000000   0.2500000), wk =   0.0004883
        k(    6) = (   0.0000000   0.0000000   0.3125000), wk =   0.0004883
        k(    7) = (   0.0000000   0.0000000   0.3750000), wk =   0.0004883
        k(    8) = (   0.0000000   0.0000000   0.4375000), wk =   0.0004883
        k(    9) = (   0.0000000   0.0000000  -0.5000000), wk =   0.0002441
        k(   10) = (   0.0000000   0.0625000   0.0000000), wk =   0.0014648
        k(   11) = (   0.0000000   0.0625000   0.0625000), wk =   0.0029297
        k(   12) = (   0.0000000   0.0625000   0.1250000), wk =   0.0029297
        k(   13) = (   0.0000000   0.0625000   0.1875000), wk =   0.0029297
        k(   14) = (   0.0000000   0.0625000   0.2500000), wk =   0.0029297
        k(   15) = (   0.0000000   0.0625000   0.3125000), wk =   0.0029297
        k(   16) = (   0.0000000   0.0625000   0.3750000), wk =   0.0029297
        k(   17) = (   0.0000000   0.0625000   0.4375000), wk =   0.0029297
        k(   18) = (   0.0000000   0.0625000  -0.5000000), wk =   0.0014648
        k(   19) = (   0.0000000   0.1250000   0.0000000), wk =   0.0014648
        k(   20) = (   0.0000000   0.1250000   0.0625000), wk =   0.0029297
        k(   21) = (   0.0000000   0.1250000   0.1250000), wk =   0.0029297
        k(   22) = (   0.0000000   0.1250000   0.1875000), wk =   0.0029297
        k(   23) = (   0.0000000   0.1250000   0.2500000), wk =   0.0029297
        k(   24) = (   0.0000000   0.1250000   0.3125000), wk =   0.0029297
        k(   25) = (   0.0000000   0.1250000   0.3750000), wk =   0.0029297
        k(   26) = (   0.0000000   0.1250000   0.4375000), wk =   0.0029297
        k(   27) = (   0.0000000   0.1250000  -0.5000000), wk =   0.0014648
        k(   28) = (   0.0000000   0.1875000   0.0000000), wk =   0.0014648
        k(   29) = (   0.0000000   0.1875000   0.0625000), wk =   0.0029297
        k(   30) = (   0.0000000   0.1875000   0.1250000), wk =   0.0029297
        k(   31) = (   0.0000000   0.1875000   0.1875000), wk =   0.0029297
        k(   32) = (   0.0000000   0.1875000   0.2500000), wk =   0.0029297
        k(   33) = (   0.0000000   0.1875000   0.3125000), wk =   0.0029297
        k(   34) = (   0.0000000   0.1875000   0.3750000), wk =   0.0029297
        k(   35) = (   0.0000000   0.1875000   0.4375000), wk =   0.0029297
        k(   36) = (   0.0000000   0.1875000  -0.5000000), wk =   0.0014648
        k(   37) = (   0.0000000   0.2500000   0.0000000), wk =   0.0014648
        k(   38) = (   0.0000000   0.2500000   0.0625000), wk =   0.0029297
        k(   39) = (   0.0000000   0.2500000   0.1250000), wk =   0.0029297
        k(   40) = (   0.0000000   0.2500000   0.1875000), wk =   0.0029297
        k(   41) = (   0.0000000   0.2500000   0.2500000), wk =   0.0029297
        k(   42) = (   0.0000000   0.2500000   0.3125000), wk =   0.0029297
        k(   43) = (   0.0000000   0.2500000   0.3750000), wk =   0.0029297
        k(   44) = (   0.0000000   0.2500000   0.4375000), wk =   0.0029297
        k(   45) = (   0.0000000   0.2500000  -0.5000000), wk =   0.0014648
        k(   46) = (   0.0000000   0.3125000   0.0000000), wk =   0.0014648
        k(   47) = (   0.0000000   0.3125000   0.0625000), wk =   0.0029297
        k(   48) = (   0.0000000   0.3125000   0.1250000), wk =   0.0029297
        k(   49) = (   0.0000000   0.3125000   0.1875000), wk =   0.0029297
        k(   50) = (   0.0000000   0.3125000   0.2500000), wk =   0.0029297
        k(   51) = (   0.0000000   0.3125000   0.3125000), wk =   0.0029297
        k(   52) = (   0.0000000   0.3125000   0.3750000), wk =   0.0029297
        k(   53) = (   0.0000000   0.3125000   0.4375000), wk =   0.0029297
        k(   54) = (   0.0000000   0.3125000  -0.5000000), wk =   0.0014648
        k(   55) = (   0.0000000   0.3750000   0.0000000), wk =   0.0014648
        k(   56) = (   0.0000000   0.3750000   0.0625000), wk =   0.0029297
        k(   57) = (   0.0000000   0.3750000   0.1250000), wk =   0.0029297
        k(   58) = (   0.0000000   0.3750000   0.1875000), wk =   0.0029297
        k(   59) = (   0.0000000   0.3750000   0.2500000), wk =   0.0029297
        k(   60) = (   0.0000000   0.3750000   0.3125000), wk =   0.0029297
        k(   61) = (   0.0000000   0.3750000   0.3750000), wk =   0.0029297
        k(   62) = (   0.0000000   0.3750000   0.4375000), wk =   0.0029297
        k(   63) = (   0.0000000   0.3750000  -0.5000000), wk =   0.0014648
        k(   64) = (   0.0000000   0.4375000   0.0000000), wk =   0.0014648
        k(   65) = (   0.0000000   0.4375000   0.0625000), wk =   0.0029297
        k(   66) = (   0.0000000   0.4375000   0.1250000), wk =   0.0029297
        k(   67) = (   0.0000000   0.4375000   0.1875000), wk =   0.0029297
        k(   68) = (   0.0000000   0.4375000   0.2500000), wk =   0.0029297
        k(   69) = (   0.0000000   0.4375000   0.3125000), wk =   0.0029297
        k(   70) = (   0.0000000   0.4375000   0.3750000), wk =   0.0029297
        k(   71) = (   0.0000000   0.4375000   0.4375000), wk =   0.0029297
        k(   72) = (   0.0000000   0.4375000  -0.5000000), wk =   0.0014648
        k(   73) = (   0.0000000  -0.5000000   0.0000000), wk =   0.0007324
        k(   74) = (   0.0000000  -0.5000000   0.0625000), wk =   0.0014648
        k(   75) = (   0.0000000  -0.5000000   0.1250000), wk =   0.0014648
        k(   76) = (   0.0000000  -0.5000000   0.1875000), wk =   0.0014648
        k(   77) = (   0.0000000  -0.5000000   0.2500000), wk =   0.0014648
        k(   78) = (   0.0000000  -0.5000000   0.3125000), wk =   0.0014648
        k(   79) = (   0.0000000  -0.5000000   0.3750000), wk =   0.0014648
        k(   80) = (   0.0000000  -0.5000000   0.4375000), wk =   0.0014648
        k(   81) = (   0.0000000  -0.5000000  -0.5000000), wk =   0.0007324
        k(   82) = (   0.0625000   0.0625000   0.0000000), wk =   0.0014648
        k(   83) = (   0.0625000   0.0625000   0.0625000), wk =   0.0029297
        k(   84) = (   0.0625000   0.0625000   0.1250000), wk =   0.0029297
        k(   85) = (   0.0625000   0.0625000   0.1875000), wk =   0.0029297
        k(   86) = (   0.0625000   0.0625000   0.2500000), wk =   0.0029297
        k(   87) = (   0.0625000   0.0625000   0.3125000), wk =   0.0029297
        k(   88) = (   0.0625000   0.0625000   0.3750000), wk =   0.0029297
        k(   89) = (   0.0625000   0.0625000   0.4375000), wk =   0.0029297
        k(   90) = (   0.0625000   0.0625000  -0.5000000), wk =   0.0014648
        k(   91) = (   0.0625000   0.1250000   0.0000000), wk =   0.0029297
        k(   92) = (   0.0625000   0.1250000   0.0625000), wk =   0.0058594
        k(   93) = (   0.0625000   0.1250000   0.1250000), wk =   0.0058594
        k(   94) = (   0.0625000   0.1250000   0.1875000), wk =   0.0058594
        k(   95) = (   0.0625000   0.1250000   0.2500000), wk =   0.0058594
        k(   96) = (   0.0625000   0.1250000   0.3125000), wk =   0.0058594
        k(   97) = (   0.0625000   0.1250000   0.3750000), wk =   0.0058594
        k(   98) = (   0.0625000   0.1250000   0.4375000), wk =   0.0058594
        k(   99) = (   0.0625000   0.1250000  -0.5000000), wk =   0.0029297
        k(  100) = (   0.0625000   0.1875000   0.0000000), wk =   0.0029297
        k(  101) = (   0.0625000   0.1875000   0.0625000), wk =   0.0058594
        k(  102) = (   0.0625000   0.1875000   0.1250000), wk =   0.0058594
        k(  103) = (   0.0625000   0.1875000   0.1875000), wk =   0.0058594
        k(  104) = (   0.0625000   0.1875000   0.2500000), wk =   0.0058594
        k(  105) = (   0.0625000   0.1875000   0.3125000), wk =   0.0058594
        k(  106) = (   0.0625000   0.1875000   0.3750000), wk =   0.0058594
        k(  107) = (   0.0625000   0.1875000   0.4375000), wk =   0.0058594
        k(  108) = (   0.0625000   0.1875000  -0.5000000), wk =   0.0029297
        k(  109) = (   0.0625000   0.2500000   0.0000000), wk =   0.0029297
        k(  110) = (   0.0625000   0.2500000   0.0625000), wk =   0.0058594
        k(  111) = (   0.0625000   0.2500000   0.1250000), wk =   0.0058594
        k(  112) = (   0.0625000   0.2500000   0.1875000), wk =   0.0058594
        k(  113) = (   0.0625000   0.2500000   0.2500000), wk =   0.0058594
        k(  114) = (   0.0625000   0.2500000   0.3125000), wk =   0.0058594
        k(  115) = (   0.0625000   0.2500000   0.3750000), wk =   0.0058594
        k(  116) = (   0.0625000   0.2500000   0.4375000), wk =   0.0058594
        k(  117) = (   0.0625000   0.2500000  -0.5000000), wk =   0.0029297
        k(  118) = (   0.0625000   0.3125000   0.0000000), wk =   0.0029297
        k(  119) = (   0.0625000   0.3125000   0.0625000), wk =   0.0058594
        k(  120) = (   0.0625000   0.3125000   0.1250000), wk =   0.0058594
        k(  121) = (   0.0625000   0.3125000   0.1875000), wk =   0.0058594
        k(  122) = (   0.0625000   0.3125000   0.2500000), wk =   0.0058594
        k(  123) = (   0.0625000   0.3125000   0.3125000), wk =   0.0058594
        k(  124) = (   0.0625000   0.3125000   0.3750000), wk =   0.0058594
        k(  125) = (   0.0625000   0.3125000   0.4375000), wk =   0.0058594
        k(  126) = (   0.0625000   0.3125000  -0.5000000), wk =   0.0029297
        k(  127) = (   0.0625000   0.3750000   0.0000000), wk =   0.0029297
        k(  128) = (   0.0625000   0.3750000   0.0625000), wk =   0.0058594
        k(  129) = (   0.0625000   0.3750000   0.1250000), wk =   0.0058594
        k(  130) = (   0.0625000   0.3750000   0.1875000), wk =   0.0058594
        k(  131) = (   0.0625000   0.3750000   0.2500000), wk =   0.0058594
        k(  132) = (   0.0625000   0.3750000   0.3125000), wk =   0.0058594
        k(  133) = (   0.0625000   0.3750000   0.3750000), wk =   0.0058594
        k(  134) = (   0.0625000   0.3750000   0.4375000), wk =   0.0058594
        k(  135) = (   0.0625000   0.3750000  -0.5000000), wk =   0.0029297
        k(  136) = (   0.0625000   0.4375000   0.0000000), wk =   0.0029297
        k(  137) = (   0.0625000   0.4375000   0.0625000), wk =   0.0058594
        k(  138) = (   0.0625000   0.4375000   0.1250000), wk =   0.0058594
        k(  139) = (   0.0625000   0.4375000   0.1875000), wk =   0.0058594
        k(  140) = (   0.0625000   0.4375000   0.2500000), wk =   0.0058594
        k(  141) = (   0.0625000   0.4375000   0.3125000), wk =   0.0058594
        k(  142) = (   0.0625000   0.4375000   0.3750000), wk =   0.0058594
        k(  143) = (   0.0625000   0.4375000   0.4375000), wk =   0.0058594
        k(  144) = (   0.0625000   0.4375000  -0.5000000), wk =   0.0029297
        k(  145) = (   0.1250000   0.1250000   0.0000000), wk =   0.0014648
        k(  146) = (   0.1250000   0.1250000   0.0625000), wk =   0.0029297
        k(  147) = (   0.1250000   0.1250000   0.1250000), wk =   0.0029297
        k(  148) = (   0.1250000   0.1250000   0.1875000), wk =   0.0029297
        k(  149) = (   0.1250000   0.1250000   0.2500000), wk =   0.0029297
        k(  150) = (   0.1250000   0.1250000   0.3125000), wk =   0.0029297
        k(  151) = (   0.1250000   0.1250000   0.3750000), wk =   0.0029297
        k(  152) = (   0.1250000   0.1250000   0.4375000), wk =   0.0029297
        k(  153) = (   0.1250000   0.1250000  -0.5000000), wk =   0.0014648
        k(  154) = (   0.1250000   0.1875000   0.0000000), wk =   0.0029297
        k(  155) = (   0.1250000   0.1875000   0.0625000), wk =   0.0058594
        k(  156) = (   0.1250000   0.1875000   0.1250000), wk =   0.0058594
        k(  157) = (   0.1250000   0.1875000   0.1875000), wk =   0.0058594
        k(  158) = (   0.1250000   0.1875000   0.2500000), wk =   0.0058594
        k(  159) = (   0.1250000   0.1875000   0.3125000), wk =   0.0058594
        k(  160) = (   0.1250000   0.1875000   0.3750000), wk =   0.0058594
        k(  161) = (   0.1250000   0.1875000   0.4375000), wk =   0.0058594
        k(  162) = (   0.1250000   0.1875000  -0.5000000), wk =   0.0029297
        k(  163) = (   0.1250000   0.2500000   0.0000000), wk =   0.0029297
        k(  164) = (   0.1250000   0.2500000   0.0625000), wk =   0.0058594
        k(  165) = (   0.1250000   0.2500000   0.1250000), wk =   0.0058594
        k(  166) = (   0.1250000   0.2500000   0.1875000), wk =   0.0058594
        k(  167) = (   0.1250000   0.2500000   0.2500000), wk =   0.0058594
        k(  168) = (   0.1250000   0.2500000   0.3125000), wk =   0.0058594
        k(  169) = (   0.1250000   0.2500000   0.3750000), wk =   0.0058594
        k(  170) = (   0.1250000   0.2500000   0.4375000), wk =   0.0058594
        k(  171) = (   0.1250000   0.2500000  -0.5000000), wk =   0.0029297
        k(  172) = (   0.1250000   0.3125000   0.0000000), wk =   0.0029297
        k(  173) = (   0.1250000   0.3125000   0.0625000), wk =   0.0058594
        k(  174) = (   0.1250000   0.3125000   0.1250000), wk =   0.0058594
        k(  175) = (   0.1250000   0.3125000   0.1875000), wk =   0.0058594
        k(  176) = (   0.1250000   0.3125000   0.2500000), wk =   0.0058594
        k(  177) = (   0.1250000   0.3125000   0.3125000), wk =   0.0058594
        k(  178) = (   0.1250000   0.3125000   0.3750000), wk =   0.0058594
        k(  179) = (   0.1250000   0.3125000   0.4375000), wk =   0.0058594
        k(  180) = (   0.1250000   0.3125000  -0.5000000), wk =   0.0029297
        k(  181) = (   0.1250000   0.3750000   0.0000000), wk =   0.0029297
        k(  182) = (   0.1250000   0.3750000   0.0625000), wk =   0.0058594
        k(  183) = (   0.1250000   0.3750000   0.1250000), wk =   0.0058594
        k(  184) = (   0.1250000   0.3750000   0.1875000), wk =   0.0058594
        k(  185) = (   0.1250000   0.3750000   0.2500000), wk =   0.0058594
        k(  186) = (   0.1250000   0.3750000   0.3125000), wk =   0.0058594
        k(  187) = (   0.1250000   0.3750000   0.3750000), wk =   0.0058594
        k(  188) = (   0.1250000   0.3750000   0.4375000), wk =   0.0058594
        k(  189) = (   0.1250000   0.3750000  -0.5000000), wk =   0.0029297
        k(  190) = (   0.1250000   0.4375000   0.0000000), wk =   0.0014648
        k(  191) = (   0.1250000   0.4375000   0.0625000), wk =   0.0029297
        k(  192) = (   0.1250000   0.4375000   0.1250000), wk =   0.0029297
        k(  193) = (   0.1250000   0.4375000   0.1875000), wk =   0.0029297
        k(  194) = (   0.1250000   0.4375000   0.2500000), wk =   0.0029297
        k(  195) = (   0.1250000   0.4375000   0.3125000), wk =   0.0029297
        k(  196) = (   0.1250000   0.4375000   0.3750000), wk =   0.0029297
        k(  197) = (   0.1250000   0.4375000   0.4375000), wk =   0.0029297
        k(  198) = (   0.1250000   0.4375000  -0.5000000), wk =   0.0014648
        k(  199) = (   0.1875000   0.1875000   0.0000000), wk =   0.0014648
        k(  200) = (   0.1875000   0.1875000   0.0625000), wk =   0.0029297
        k(  201) = (   0.1875000   0.1875000   0.1250000), wk =   0.0029297
        k(  202) = (   0.1875000   0.1875000   0.1875000), wk =   0.0029297
        k(  203) = (   0.1875000   0.1875000   0.2500000), wk =   0.0029297
        k(  204) = (   0.1875000   0.1875000   0.3125000), wk =   0.0029297
        k(  205) = (   0.1875000   0.1875000   0.3750000), wk =   0.0029297
        k(  206) = (   0.1875000   0.1875000   0.4375000), wk =   0.0029297
        k(  207) = (   0.1875000   0.1875000  -0.5000000), wk =   0.0014648
        k(  208) = (   0.1875000   0.2500000   0.0000000), wk =   0.0029297
        k(  209) = (   0.1875000   0.2500000   0.0625000), wk =   0.0058594
        k(  210) = (   0.1875000   0.2500000   0.1250000), wk =   0.0058594
        k(  211) = (   0.1875000   0.2500000   0.1875000), wk =   0.0058594
        k(  212) = (   0.1875000   0.2500000   0.2500000), wk =   0.0058594
        k(  213) = (   0.1875000   0.2500000   0.3125000), wk =   0.0058594
        k(  214) = (   0.1875000   0.2500000   0.3750000), wk =   0.0058594
        k(  215) = (   0.1875000   0.2500000   0.4375000), wk =   0.0058594
        k(  216) = (   0.1875000   0.2500000  -0.5000000), wk =   0.0029297
        k(  217) = (   0.1875000   0.3125000   0.0000000), wk =   0.0029297
        k(  218) = (   0.1875000   0.3125000   0.0625000), wk =   0.0058594
        k(  219) = (   0.1875000   0.3125000   0.1250000), wk =   0.0058594
        k(  220) = (   0.1875000   0.3125000   0.1875000), wk =   0.0058594
        k(  221) = (   0.1875000   0.3125000   0.2500000), wk =   0.0058594
        k(  222) = (   0.1875000   0.3125000   0.3125000), wk =   0.0058594
        k(  223) = (   0.1875000   0.3125000   0.3750000), wk =   0.0058594
        k(  224) = (   0.1875000   0.3125000   0.4375000), wk =   0.0058594
        k(  225) = (   0.1875000   0.3125000  -0.5000000), wk =   0.0029297
        k(  226) = (   0.1875000   0.3750000   0.0000000), wk =   0.0029297
        k(  227) = (   0.1875000   0.3750000   0.0625000), wk =   0.0058594
        k(  228) = (   0.1875000   0.3750000   0.1250000), wk =   0.0058594
        k(  229) = (   0.1875000   0.3750000   0.1875000), wk =   0.0058594
        k(  230) = (   0.1875000   0.3750000   0.2500000), wk =   0.0058594
        k(  231) = (   0.1875000   0.3750000   0.3125000), wk =   0.0058594
        k(  232) = (   0.1875000   0.3750000   0.3750000), wk =   0.0058594
        k(  233) = (   0.1875000   0.3750000   0.4375000), wk =   0.0058594
        k(  234) = (   0.1875000   0.3750000  -0.5000000), wk =   0.0029297
        k(  235) = (   0.2500000   0.2500000   0.0000000), wk =   0.0014648
        k(  236) = (   0.2500000   0.2500000   0.0625000), wk =   0.0029297
        k(  237) = (   0.2500000   0.2500000   0.1250000), wk =   0.0029297
        k(  238) = (   0.2500000   0.2500000   0.1875000), wk =   0.0029297
        k(  239) = (   0.2500000   0.2500000   0.2500000), wk =   0.0029297
        k(  240) = (   0.2500000   0.2500000   0.3125000), wk =   0.0029297
        k(  241) = (   0.2500000   0.2500000   0.3750000), wk =   0.0029297
        k(  242) = (   0.2500000   0.2500000   0.4375000), wk =   0.0029297
        k(  243) = (   0.2500000   0.2500000  -0.5000000), wk =   0.0014648
        k(  244) = (   0.2500000   0.3125000   0.0000000), wk =   0.0029297
        k(  245) = (   0.2500000   0.3125000   0.0625000), wk =   0.0058594
        k(  246) = (   0.2500000   0.3125000   0.1250000), wk =   0.0058594
        k(  247) = (   0.2500000   0.3125000   0.1875000), wk =   0.0058594
        k(  248) = (   0.2500000   0.3125000   0.2500000), wk =   0.0058594
        k(  249) = (   0.2500000   0.3125000   0.3125000), wk =   0.0058594
        k(  250) = (   0.2500000   0.3125000   0.3750000), wk =   0.0058594
        k(  251) = (   0.2500000   0.3125000   0.4375000), wk =   0.0058594
        k(  252) = (   0.2500000   0.3125000  -0.5000000), wk =   0.0029297
        k(  253) = (   0.2500000   0.3750000   0.0000000), wk =   0.0014648
        k(  254) = (   0.2500000   0.3750000   0.0625000), wk =   0.0029297
        k(  255) = (   0.2500000   0.3750000   0.1250000), wk =   0.0029297
        k(  256) = (   0.2500000   0.3750000   0.1875000), wk =   0.0029297
        k(  257) = (   0.2500000   0.3750000   0.2500000), wk =   0.0029297
        k(  258) = (   0.2500000   0.3750000   0.3125000), wk =   0.0029297
        k(  259) = (   0.2500000   0.3750000   0.3750000), wk =   0.0029297
        k(  260) = (   0.2500000   0.3750000   0.4375000), wk =   0.0029297
        k(  261) = (   0.2500000   0.3750000  -0.5000000), wk =   0.0014648
        k(  262) = (   0.3125000   0.3125000   0.0000000), wk =   0.0014648
        k(  263) = (   0.3125000   0.3125000   0.0625000), wk =   0.0029297
        k(  264) = (   0.3125000   0.3125000   0.1250000), wk =   0.0029297
        k(  265) = (   0.3125000   0.3125000   0.1875000), wk =   0.0029297
        k(  266) = (   0.3125000   0.3125000   0.2500000), wk =   0.0029297
        k(  267) = (   0.3125000   0.3125000   0.3125000), wk =   0.0029297
        k(  268) = (   0.3125000   0.3125000   0.3750000), wk =   0.0029297
        k(  269) = (   0.3125000   0.3125000   0.4375000), wk =   0.0029297
        k(  270) = (   0.3125000   0.3125000  -0.5000000), wk =   0.0014648

     Dense  grid:    17261 G-vectors     FFT dimensions: (  30,  30,  48)

     Dynamical RAM for                 wfc:       0.69 MB

     Dynamical RAM for     wfc (w. buffer):       6.91 MB

     Dynamical RAM for           str. fact:       0.26 MB

     Dynamical RAM for           local pot:       0.00 MB

     Dynamical RAM for          nlocal pot:       1.18 MB

     Dynamical RAM for                qrad:       1.52 MB

     Dynamical RAM for          rho,v,vnew:       3.56 MB

     Dynamical RAM for               rhoin:       1.19 MB

     Dynamical RAM for            rho*nmix:       8.43 MB

     Dynamical RAM for           G-vectors:       1.12 MB

     Dynamical RAM for          h,s,v(r/c):       0.08 MB

     Dynamical RAM for          <psi|beta>:       0.01 MB

     Dynamical RAM for                 psi:       1.38 MB

     Dynamical RAM for                hpsi:       1.38 MB

     Dynamical RAM for      wfcinit/wfcrot:       1.39 MB

     Estimated static dynamical RAM per process >      18.24 MB

     Estimated max dynamical RAM per process >      29.53 MB

     Estimated total dynamical RAM >       1.33 GB
     Generating pointlists ...
     new r_m :   0.4109 (alat units)  1.9465 (a.u.) for type    1

     Initial potential from superposition of free atoms

     starting charge      33.9250, renormalised to      34.0000
     Starting wfcs are random

     total cpu time spent up to now is        0.6 secs

     Self-consistent Calculation

     iteration #  1     ecut=    90.00 Ry     beta= 0.70
     Davidson diagonalization with overlap

---- Real-time Memory Report at c_bands before calling an iterative solver
            56 MiB given to the printing process from OS
             0 MiB allocation reported by mallinfo(arena+hblkhd)
          7820 MiB available memory on the node where the printing process lives
------------------
     ethr =  1.00E-02,  avg # of iterations = 10.4

     total cpu time spent up to now is        3.2 secs

     total energy              =    -541.14292385 Ry
     estimated scf accuracy    <       4.05442929 Ry

     total magnetization       =     6.20 Bohr mag/cell
     absolute magnetization    =     6.47 Bohr mag/cell

     iteration #  2     ecut=    90.00 Ry     beta= 0.70
     Davidson diagonalization with overlap

---- Real-time Memory Report at c_bands before calling an iterative solver
            75 MiB given to the printing process from OS
             0 MiB allocation reported by mallinfo(arena+hblkhd)
          7871 MiB available memory on the node where the printing process lives
------------------
     ethr =  1.00E-02,  avg # of iterations =  1.5

     total cpu time spent up to now is        4.1 secs

     total energy              =    -541.70152323 Ry
     estimated scf accuracy    <       1.11186015 Ry

     total magnetization       =     4.16 Bohr mag/cell
     absolute magnetization    =     4.70 Bohr mag/cell

     iteration #  3     ecut=    90.00 Ry     beta= 0.70
     Davidson diagonalization with overlap

---- Real-time Memory Report at c_bands before calling an iterative solver
            77 MiB given to the printing process from OS
             0 MiB allocation reported by mallinfo(arena+hblkhd)
          7850 MiB available memory on the node where the printing process lives
------------------
     ethr =  3.27E-03,  avg # of iterations =  2.0

     total cpu time spent up to now is        5.1 secs

     total energy              =    -541.89875345 Ry
     estimated scf accuracy    <       0.38621497 Ry

     total magnetization       =     4.03 Bohr mag/cell
     absolute magnetization    =     4.54 Bohr mag/cell

     iteration #  4     ecut=    90.00 Ry     beta= 0.70
     Davidson diagonalization with overlap

---- Real-time Memory Report at c_bands before calling an iterative solver
            79 MiB given to the printing process from OS
             0 MiB allocation reported by mallinfo(arena+hblkhd)
          7826 MiB available memory on the node where the printing process lives
------------------
     ethr =  1.14E-03,  avg # of iterations =  1.6

     total cpu time spent up to now is        6.0 secs

     total energy              =    -541.97127418 Ry
     estimated scf accuracy    <       0.00261261 Ry

     total magnetization       =     3.34 Bohr mag/cell
     absolute magnetization    =     3.84 Bohr mag/cell

     iteration #  5     ecut=    90.00 Ry     beta= 0.70
     Davidson diagonalization with overlap

---- Real-time Memory Report at c_bands before calling an iterative solver
            79 MiB given to the printing process from OS
             0 MiB allocation reported by mallinfo(arena+hblkhd)
          7815 MiB available memory on the node where the printing process lives
------------------
     ethr =  7.68E-06,  avg # of iterations =  3.8

     total cpu time spent up to now is        7.3 secs

     total energy              =    -541.97363800 Ry
     estimated scf accuracy    <       0.00243316 Ry

     total magnetization       =     3.24 Bohr mag/cell
     absolute magnetization    =     3.64 Bohr mag/cell

     iteration #  6     ecut=    90.00 Ry     beta= 0.70
     Davidson diagonalization with overlap

---- Real-time Memory Report at c_bands before calling an iterative solver
            81 MiB given to the printing process from OS
             0 MiB allocation reported by mallinfo(arena+hblkhd)
          7808 MiB available memory on the node where the printing process lives
------------------
     ethr =  7.16E-06,  avg # of iterations =  1.8

     total cpu time spent up to now is        8.2 secs

     total energy              =    -541.97384903 Ry
     estimated scf accuracy    <       0.00018301 Ry

     total magnetization       =     3.26 Bohr mag/cell
     absolute magnetization    =     3.66 Bohr mag/cell

     iteration #  7     ecut=    90.00 Ry     beta= 0.70
     Davidson diagonalization with overlap

---- Real-time Memory Report at c_bands before calling an iterative solver
            82 MiB given to the printing process from OS
             0 MiB allocation reported by mallinfo(arena+hblkhd)
          7797 MiB available memory on the node where the printing process lives
------------------
     ethr =  5.38E-07,  avg # of iterations =  2.5

     total cpu time spent up to now is        9.3 secs

     total energy              =    -541.97394157 Ry
     estimated scf accuracy    <       0.00015671 Ry

     total magnetization       =     3.26 Bohr mag/cell
     absolute magnetization    =     3.63 Bohr mag/cell

     iteration #  8     ecut=    90.00 Ry     beta= 0.70
     Davidson diagonalization with overlap

---- Real-time Memory Report at c_bands before calling an iterative solver
            84 MiB given to the printing process from OS
             0 MiB allocation reported by mallinfo(arena+hblkhd)
          7791 MiB available memory on the node where the printing process lives
------------------
     ethr =  4.61E-07,  avg # of iterations =  1.6

     total cpu time spent up to now is       10.2 secs

     total energy              =    -541.97395608 Ry
     estimated scf accuracy    <       0.00000612 Ry

     total magnetization       =     3.25 Bohr mag/cell
     absolute magnetization    =     3.63 Bohr mag/cell

     iteration #  9     ecut=    90.00 Ry     beta= 0.70
     Davidson diagonalization with overlap

---- Real-time Memory Report at c_bands before calling an iterative solver
            85 MiB given to the printing process from OS
             0 MiB allocation reported by mallinfo(arena+hblkhd)
          7783 MiB available memory on the node where the printing process lives
------------------
     ethr =  1.80E-08,  avg # of iterations =  2.1

     total cpu time spent up to now is       11.3 secs

     total energy              =    -541.97395829 Ry
     estimated scf accuracy    <       0.00000013 Ry

     total magnetization       =     3.25 Bohr mag/cell
     absolute magnetization    =     3.63 Bohr mag/cell

     iteration # 10     ecut=    90.00 Ry     beta= 0.70
     Davidson diagonalization with overlap

---- Real-time Memory Report at c_bands before calling an iterative solver
            86 MiB given to the printing process from OS
             0 MiB allocation reported by mallinfo(arena+hblkhd)
          7776 MiB available memory on the node where the printing process lives
------------------
     ethr =  3.90E-10,  avg # of iterations =  2.3

     total cpu time spent up to now is       12.2 secs

     total energy              =    -541.97395831 Ry
     estimated scf accuracy    <       0.00000005 Ry

     total magnetization       =     3.25 Bohr mag/cell
     absolute magnetization    =     3.63 Bohr mag/cell

     iteration # 11     ecut=    90.00 Ry     beta= 0.70
     Davidson diagonalization with overlap

---- Real-time Memory Report at c_bands before calling an iterative solver
            86 MiB given to the printing process from OS
             0 MiB allocation reported by mallinfo(arena+hblkhd)
          7762 MiB available memory on the node where the printing process lives
------------------
     ethr =  1.61E-10,  avg # of iterations =  2.0

     total cpu time spent up to now is       13.3 secs

     total energy              =    -541.97395833 Ry
     estimated scf accuracy    <          2.5E-09 Ry

     total magnetization       =     3.25 Bohr mag/cell
     absolute magnetization    =     3.63 Bohr mag/cell

     iteration # 12     ecut=    90.00 Ry     beta= 0.70
     Davidson diagonalization with overlap

---- Real-time Memory Report at c_bands before calling an iterative solver
            86 MiB given to the printing process from OS
             0 MiB allocation reported by mallinfo(arena+hblkhd)
          7758 MiB available memory on the node where the printing process lives
------------------
     ethr =  7.34E-12,  avg # of iterations =  2.0

     total cpu time spent up to now is       14.3 secs

     total energy              =    -541.97395833 Ry
     estimated scf accuracy    <          8.8E-10 Ry

     total magnetization       =     3.25 Bohr mag/cell
     absolute magnetization    =     3.63 Bohr mag/cell

     iteration # 13     ecut=    90.00 Ry     beta= 0.70
     Davidson diagonalization with overlap

---- Real-time Memory Report at c_bands before calling an iterative solver
            86 MiB given to the printing process from OS
             0 MiB allocation reported by mallinfo(arena+hblkhd)
          7762 MiB available memory on the node where the printing process lives
------------------
     ethr =  2.57E-12,  avg # of iterations =  2.0
 
     Magnetic moment per site  (integrated on atomic sphere of radius R)
     atom   1 (R=0.411)  charge= 15.6211  magn=  1.7105
     atom   2 (R=0.411)  charge= 15.6211  magn=  1.7105

     total cpu time spent up to now is       15.4 secs

     End of self-consistent calculation

 ------ SPIN UP ------------


          k = 0.0000 0.0000 0.0000 (  2165 PWs)   bands (ev):

   -76.0764 -76.0247 -39.6817 -39.4142 -39.4142 -39.3780 -39.3703 -39.3703
    10.9081  14.6176  17.0540  17.0969  17.0969  17.3955  17.3955  17.7370
    17.7370  18.7969  18.7969  19.6005  25.8312

     occupation numbers 
     1.0000   1.0000   1.0000   1.0000   1.0000   1.0000   1.0000   1.0000
     1.0000   1.0000   1.0000   1.0000   1.0000   1.0000   1.0000   1.0000
     1.0000   1.0001   1.0001   0.7764   0.0000

          k = 0.0000 0.0000 0.0385 (  2159 PWs)   bands (ev):

   -76.0759 -76.0252 -39.6788 -39.4138 -39.4138 -39.3810 -39.3707 -39.3707
    10.9469  14.6108  17.0441  17.0853  17.0853  17.3850  17.3850  17.7621
    17.7621  18.7950  18.7950  19.4277  26.0799

     occupation numbers 
     1.0000   1.0000   1.0000   1.0000   1.0000   1.0000   1.0000   1.0000
     1.0000   1.0000   1.0000   1.0000   1.0000   1.0000   1.0000   1.0000
     1.0000   1.0001   1.0001   1.0621   0.0000

          k = 0.0000 0.0000 0.0770 (  2153 PWs)   bands (ev):

   -76.0744 -76.0267 -39.6703 -39.4125 -39.4125 -39.3897 -39.3720 -39.3720
    11.0627  14.5864  17.0154  17.0570  17.0570  17.3548  17.3548  17.8304
    17.8304  18.7884  18.7884  18.9860  26.7531

     occupation numbers 
     1.0000   1.0000   1.0000   1.0000   1.0000   1.0000   1.0000   1.0000
     1.0000   1.0000   1.0000   1.0000   1.0000   1.0000   1.0000   1.0000
     1.0000   1.0001   1.0001   1.0039   0.0000

          k = 0.0000 0.0000 0.1155 (  2165 PWs)   bands (ev):

   -76.0720 -76.0291 -39.6564 -39.4105 -39.4105 -39.4039 -39.3740 -39.3740
    11.2535  14.5312  16.9707  17.0247  17.0247  17.3087  17.3087  17.9275
    17.9275  18.4222  18.7742  18.7742  27.7154

     occupation numbers 
     1.0000   1.0000   1.0000   1.0000   1.0000   1.0000   1.0000   1.0000
     1.0000   1.0000   1.0000   1.0000   1.0000   1.0000   1.0000   1.0000
     1.0000   1.0000   1.0001   1.0001   0.0000

          k = 0.0000 0.0000 0.1540 (  2153 PWs)   bands (ev):

   -76.0688 -76.0323 -39.6377 -39.4230 -39.4078 -39.4078 -39.3767 -39.3767
    11.5158  14.4219  16.9145  16.9984  16.9984  17.2522  17.2522  17.8599
    18.0407  18.0407  18.7493  18.7493  28.8637

     occupation numbers 
     1.0000   1.0000   1.0000   1.0000   1.0000   1.0000   1.0000   1.0000
     1.0000   1.0000   1.0000   1.0000   1.0000   1.0000   1.0000   1.0000
     1.0000   1.0000   1.0001   1.0001   0.0000

          k = 0.0000 0.0000 0.1925 (  2141 PWs)   bands (ev):

   -76.0649 -76.0362 -39.6149 -39.4462 -39.4044 -39.4044 -39.3801 -39.3801
    11.8439  14.2292  16.8540  16.9842  16.9842  17.1910  17.1910  17.3858
    18.1605  18.1605  18.7103  18.7103  30.1367

     occupation numbers 
     1.0000   1.0000   1.0000   1.0000   1.0000   1.0000   1.0000   1.0000
     1.0000   1.0000   1.0000   1.0000   1.0000   1.0000   1.0000   1.0000
     1.0000   1.0000   1.0000   1.0000   0.0000

          k = 0.0000 0.0000 0.2310 (  2141 PWs)   bands (ev):

   -76.0604 -76.0407 -39.5888 -39.4726 -39.4007 -39.4007 -39.3839 -39.3839
    12.2289  13.9337  16.7994  16.9848  16.9848  17.0495  17.1308  17.1308
    18.2798  18.2798  18.6552  18.6552  31.4988

     occupation numbers 
     1.0000   1.0000   1.0000   1.0000   1.0000   1.0000   1.0000   1.0000
     1.0000   1.0000   1.0000   1.0000   1.0000   1.0000   1.0000   1.0000
     1.0000   1.0000   1.0000   1.0000   0.0000

          k = 0.0000 0.0000 0.2695 (  2142 PWs)   bands (ev):

   -76.0556 -76.0455 -39.5605 -39.5012 -39.3965 -39.3965 -39.3880 -39.3880
    12.6571  13.5469  16.7654  16.8556  17.0011  17.0011  17.0766  17.0766
    18.3928  18.3928  18.5832  18.5832  32.9275

     occupation numbers 
     1.0000   1.0000   1.0000   1.0000   1.0000   1.0000   1.0000   1.0000
     1.0000   1.0000   1.0000   1.0000   1.0000   1.0000   1.0000   1.0000
     1.0000   1.0000   1.0000   1.0000   0.0000

          k = 0.0000 0.0000-0.3080 (  2112 PWs)   bands (ev):

   -76.0506 -76.0506 -39.5309 -39.5309 -39.3923 -39.3923 -39.3923 -39.3923
    13.1072  13.1072  16.7738  16.7738  17.0323  17.0323  17.0323  17.0323
    18.4950  18.4950  18.4950  18.4950  34.4064

     occupation numbers 
     1.0000   1.0000   1.0000   1.0000   1.0000   1.0000   1.0000   1.0000
     1.0000   1.0000   1.0000   1.0000   1.0000   1.0000   1.0000   1.0000
     1.0000   1.0000   1.0000   1.0000   0.0000

          k = 0.0000 0.0722 0.0000 (  2157 PWs)   bands (ev):

   -76.0747 -76.0239 -39.6780 -39.4226 -39.4169 -39.3795 -39.3790 -39.3717
    11.0437  14.6996  16.9213  17.1598  17.2128  17.3655  17.4513  17.6667
    17.6976  18.2666  18.8136  20.2930  25.8558

     occupation numbers 
     1.0000   1.0000   1.0000   1.0000   1.0000   1.0000   1.0000   1.0000
     1.0000   1.0000   1.0000   1.0000   1.0000   1.0000   1.0000   1.0000
     1.0000   1.0000   1.0002   0.0003   0.0000

          k = 0.0000 0.0722 0.0385 (  2155 PWs)   bands (ev):

   -76.0742 -76.0244 -39.6752 -39.4221 -39.4165 -39.3845 -39.3773 -39.3722
    11.0822  14.6940  16.9186  17.1462  17.1881  17.3481  17.4398  17.6998
    17.7260  18.2380  18.8111  20.1413  26.1139

     occupation numbers 
     1.0000   1.0000   1.0000   1.0000   1.0000   1.0000   1.0000   1.0000
     1.0000   1.0000   1.0000   1.0000   1.0000   1.0000   1.0000   1.0000
     1.0000   1.0000   1.0002   0.0045   0.0000

          k = 0.0000 0.0722 0.0770 (  2158 PWs)   bands (ev):

   -76.0727 -76.0259 -39.6669 -39.4207 -39.4152 -39.3941 -39.3776 -39.3734
    11.1971  14.6731  16.9121  17.1139  17.1266  17.3000  17.4082  17.7800
    17.8006  18.1428  18.8027  19.7834  26.8055

     occupation numbers 
     1.0000   1.0000   1.0000   1.0000   1.0000   1.0000   1.0000   1.0000
     1.0000   1.0000   1.0000   1.0000   1.0000   1.0000   1.0000   1.0000
     1.0000   1.0000   1.0002   0.2990   0.0000

          k = 0.0000 0.0722 0.1155 (  2148 PWs)   bands (ev):

   -76.0704 -76.0282 -39.6535 -39.4186 -39.4131 -39.4083 -39.3793 -39.3755
    11.3863  14.6233  16.9045  17.0478  17.0783  17.2236  17.3613  17.8506
    17.9036  17.9908  18.7859  19.4026  27.7838

     occupation numbers 
     1.0000   1.0000   1.0000   1.0000   1.0000   1.0000   1.0000   1.0000
     1.0000   1.0000   1.0000   1.0000   1.0000   1.0000   1.0000   1.0000
     1.0000   1.0000   1.0001   1.0749   0.0000

          k = 0.0000 0.0722 0.1540 (  2142 PWs)   bands (ev):

   -76.0673 -76.0314 -39.6354 -39.4271 -39.4155 -39.4103 -39.3820 -39.3784
    11.6463  14.5206  16.8946  16.9692  17.0500  17.1135  17.3044  17.6541
    18.0213  18.0427  18.7576  19.1165  28.9430

     occupation numbers 
     1.0000   1.0000   1.0000   1.0000   1.0000   1.0000   1.0000   1.0000
     1.0000   1.0000   1.0000   1.0000   1.0000   1.0000   1.0000   1.0000
     1.0000   1.0000   1.0001   1.0198   0.0000

          k = 0.0000 0.0722 0.1925 (  2147 PWs)   bands (ev):

   -76.0634 -76.0352 -39.6133 -39.4497 -39.4119 -39.4069 -39.3855 -39.3818
    11.9716  14.3339  16.8475  16.9363  16.9641  17.0348  17.2430  17.4080
    18.1447  18.1674  18.7150  18.9268  30.2230

     occupation numbers 
     1.0000   1.0000   1.0000   1.0000   1.0000   1.0000   1.0000   1.0000
     1.0000   1.0000   1.0000   1.0000   1.0000   1.0000   1.0000   1.0000
     1.0000   1.0000   1.0000   1.0016   0.0000

          k = 0.0000 0.0722 0.2310 (  2146 PWs)   bands (ev):

   -76.0590 -76.0396 -39.5880 -39.4754 -39.4078 -39.4030 -39.3896 -39.3857
    12.3532  14.0431  16.7722  16.8066  16.9542  17.0353  17.1826  17.2393
    18.2671  18.2971  18.6561  18.7880  31.5897

     occupation numbers 
     1.0000   1.0000   1.0000   1.0000   1.0000   1.0000   1.0000   1.0000
     1.0000   1.0000   1.0000   1.0000   1.0000   1.0000   1.0000   1.0000
     1.0000   1.0000   1.0000   1.0001   0.0000

          k = 0.0000 0.0722 0.2695 (  2144 PWs)   bands (ev):

   -76.0543 -76.0444 -39.5605 -39.5031 -39.4033 -39.3987 -39.3940 -39.3899
    12.7777  13.6599  16.7065  16.7111  16.9922  17.0518  17.1281  17.1285
    18.3832  18.4247  18.5804  18.6669  33.0213

     occupation numbers 
     1.0000   1.0000   1.0000   1.0000   1.0000   1.0000   1.0000   1.0000
     1.0000   1.0000   1.0000   1.0000   1.0000   1.0000   1.0000   1.0000
     1.0000   1.0000   1.0000   1.0000   0.0000

          k = 0.0000 0.0722-0.3080 (  2138 PWs)   bands (ev):

   -76.0493 -76.0493 -39.5318 -39.5318 -39.3987 -39.3987 -39.3943 -39.3943
    13.2239  13.2239  16.6813  16.6813  17.0494  17.0494  17.0834  17.0834
    18.4887  18.4887  18.5477  18.5477  34.5021

     occupation numbers 
     1.0000   1.0000   1.0000   1.0000   1.0000   1.0000   1.0000   1.0000
     1.0000   1.0000   1.0000   1.0000   1.0000   1.0000   1.0000   1.0000
     1.0000   1.0000   1.0000   1.0000   0.0000

          k = 0.0000 0.1443 0.0000 (  2161 PWs)   bands (ev):

   -76.0698 -76.0217 -39.6671 -39.4464 -39.4246 -39.4036 -39.3841 -39.3759
    11.4429  14.9231  16.7351  17.2493  17.2934  17.3421  17.4071  17.5924
    17.6124  17.8227  18.8542  21.3895  25.9371

     occupation numbers 
     1.0000   1.0000   1.0000   1.0000   1.0000   1.0000   1.0000   1.0000
     1.0000   1.0000   1.0000   1.0000   1.0000   1.0000   1.0000   1.0000
     1.0000   1.0000   1.0004   0.0000   0.0000

          k = 0.0000 0.1443 0.0385 (  2157 PWs)   bands (ev):

   -76.0694 -76.0222 -39.6646 -39.4459 -39.4241 -39.4061 -39.3848 -39.3763
    11.4803  14.9211  16.7373  17.1896  17.2492  17.3162  17.4631  17.5841
    17.6509  17.8319  18.8502  21.2003  26.2256

     occupation numbers 
     1.0000   1.0000   1.0000   1.0000   1.0000   1.0000   1.0000   1.0000
     1.0000   1.0000   1.0000   1.0000   1.0000   1.0000   1.0000   1.0000
     1.0000   1.0000   1.0004   0.0000   0.0000

          k = 0.0000 0.1443 0.0770 (  2151 PWs)   bands (ev):

   -76.0680 -76.0236 -39.6572 -39.4442 -39.4228 -39.4135 -39.3867 -39.3777
    11.5918  14.9107  16.7446  17.0590  17.1704  17.2661  17.5197  17.5550
    17.7432  17.8684  18.8374  20.7541  26.9735

     occupation numbers 
     1.0000   1.0000   1.0000   1.0000   1.0000   1.0000   1.0000   1.0000
     1.0000   1.0000   1.0000   1.0000   1.0000   1.0000   1.0000   1.0000
     1.0000   1.0000   1.0003   0.0000   0.0000

          k = 0.0000 0.1443 0.1155 (  2148 PWs)   bands (ev):

[...]
     1.0000   1.0000   1.0000   1.0000   1.0000   1.0000   0.7855   0.7855
     0.0000   0.0000   0.0000   0.0000   0.0000

          k = 0.2500 0.5774 0.0000 (  2161 PWs)   bands (ev):

   -74.5752 -74.5680 -37.7582 -37.7092 -37.6886 -37.6526 -37.6293 -37.6089
    16.6799  16.8223  16.9294  17.2309  18.4207  18.5441  19.3681  20.5696
    20.8015  20.8324  23.9316  24.9710  27.6890

     occupation numbers 
     1.0000   1.0000   1.0000   1.0000   1.0000   1.0000   1.0000   1.0000
     1.0000   1.0000   1.0000   1.0000   1.0000   1.0000   1.0828   0.0000
     0.0000   0.0000   0.0000   0.0000   0.0000

          k = 0.2500 0.5774 0.0385 (  2165 PWs)   bands (ev):

   -74.5751 -74.5680 -37.7587 -37.7122 -37.6929 -37.6463 -37.6315 -37.6050
    16.6513  16.8760  16.9421  17.2244  18.4111  18.5369  19.3698  20.5742
    20.7867  20.8156  23.9637  24.9732  27.7108

     occupation numbers 
     1.0000   1.0000   1.0000   1.0000   1.0000   1.0000   1.0000   1.0000
     1.0000   1.0000   1.0000   1.0000   1.0000   1.0000   1.0826   0.0000
     0.0000   0.0000   0.0000   0.0000   0.0000

          k = 0.2500 0.5774 0.0770 (  2168 PWs)   bands (ev):

   -74.5749 -74.5682 -37.7604 -37.7203 -37.7000 -37.6362 -37.6331 -37.5966
    16.6136  16.9773  16.9880  17.2071  18.3817  18.5160  19.3758  20.5880
    20.6766  20.8361  24.0537  24.9794  27.7704

     occupation numbers 
     1.0000   1.0000   1.0000   1.0000   1.0000   1.0000   1.0000   1.0000
     1.0000   1.0000   1.0000   1.0000   1.0000   1.0000   1.0819   0.0000
     0.0000   0.0000   0.0000   0.0000   0.0000

          k = 0.2500 0.5774 0.1155 (  2165 PWs)   bands (ev):

   -74.5746 -74.5686 -37.7636 -37.7312 -37.7045 -37.6418 -37.6183 -37.5871
    16.5935  17.0210  17.1284  17.1919  18.3306  18.4829  19.3886  20.5116
    20.6118  20.8660  24.1866  24.9891  27.8482

     occupation numbers 
     1.0000   1.0000   1.0000   1.0000   1.0000   1.0000   1.0000   1.0000
     1.0000   1.0000   1.0000   1.0000   1.0000   1.0000   1.0793   0.0000
     0.0000   0.0000   0.0000   0.0000   0.0000

          k = 0.2500 0.5774 0.1540 (  2163 PWs)   bands (ev):

   -74.5741 -74.5690 -37.7681 -37.7429 -37.7050 -37.6484 -37.6038 -37.5782
    16.5944  17.0295  17.2216  17.2879  18.2571  18.4374  19.4107  20.3177
    20.6460  20.8937  24.3454  25.0002  27.9079

     occupation numbers 
     1.0000   1.0000   1.0000   1.0000   1.0000   1.0000   1.0000   1.0000
     1.0000   1.0000   1.0000   1.0000   1.0000   1.0000   1.0714   0.0002
     0.0000   0.0000   0.0000   0.0000   0.0000

          k = 0.2500 0.5774 0.1925 (  2160 PWs)   bands (ev):

   -74.5736 -74.5696 -37.7726 -37.7540 -37.7019 -37.6557 -37.5908 -37.5712
    16.6155  16.9856  17.3119  17.4581  18.1639  18.3765  19.4445  20.1181
    20.6902  20.9101  24.5140  25.0085  27.9111

     occupation numbers 
     1.0000   1.0000   1.0000   1.0000   1.0000   1.0000   1.0000   1.0000
     1.0000   1.0000   1.0000   1.0000   1.0000   1.0000   1.0498   0.0065
     0.0000   0.0000   0.0000   0.0000   0.0000

          k = 0.2500 0.5774 0.2310 (  2170 PWs)   bands (ev):

   -74.5730 -74.5702 -37.7758 -37.7634 -37.6963 -37.6638 -37.5801 -37.5667
    16.6547  16.9194  17.4317  17.6234  18.0622  18.2950  19.4924  19.9324
    20.7421  20.9086  24.6767  25.0061  27.8666

     occupation numbers 
     1.0000   1.0000   1.0000   1.0000   1.0000   1.0000   1.0000   1.0000
     1.0000   1.0000   1.0000   1.0000   1.0000   1.0000   0.9961   0.0770
     0.0000   0.0000   0.0000   0.0000   0.0000

          k = 0.2500 0.5774 0.2695 (  2173 PWs)   bands (ev):

   -74.5723 -74.5709 -37.7768 -37.7706 -37.6890 -37.6723 -37.5720 -37.5653
    16.7089  16.8464  17.5623  17.7313  17.9998  18.1898  19.5590  19.7746
    20.7970  20.8871  24.8168  24.9809  27.8427

     occupation numbers 
     1.0000   1.0000   1.0000   1.0000   1.0000   1.0000   1.0000   1.0000
     1.0000   1.0000   1.0000   1.0000   1.0000   1.0000   0.8752   0.3185
     0.0000   0.0000   0.0000   0.0000   0.0000

          k = 0.2500 0.5774-0.3080 (  2174 PWs)   bands (ev):

   -74.5716 -74.5716 -37.7751 -37.7751 -37.6809 -37.6809 -37.5670 -37.5670
    16.7743  16.7743  17.6840  17.6840  18.0702  18.0702  19.6508  19.6508
    20.8478  20.8478  24.9201  24.9201  27.9081

     occupation numbers 
     1.0000   1.0000   1.0000   1.0000   1.0000   1.0000   1.0000   1.0000
     1.0000   1.0000   1.0000   1.0000   1.0000   1.0000   0.6419   0.6419
     0.0000   0.0000   0.0000   0.0000   0.0000

          k = 0.3125 0.5413 0.0000 (  2151 PWs)   bands (ev):

   -74.5731 -74.5690 -37.7488 -37.7068 -37.6928 -37.6455 -37.6427 -37.6178
    16.8237  16.8534  17.0235  17.1184  18.3942  18.5000  19.4212  20.5401
    20.7501  20.8111  24.2633  25.9499  26.0484

     occupation numbers 
     1.0000   1.0000   1.0000   1.0000   1.0000   1.0000   1.0000   1.0000
     1.0000   1.0000   1.0000   1.0000   1.0000   1.0000   1.0660   0.0000
     0.0000   0.0000   0.0000   0.0000   0.0000

          k = 0.3125 0.5413 0.0385 (  2163 PWs)   bands (ev):

   -74.5731 -74.5691 -37.7482 -37.7114 -37.6964 -37.6476 -37.6367 -37.6141
    16.8342  16.8560  17.0424  17.1225  18.3882  18.4820  19.4185  20.5470
    20.7581  20.7705  24.2992  25.9819  26.0504

     occupation numbers 
     1.0000   1.0000   1.0000   1.0000   1.0000   1.0000   1.0000   1.0000
     1.0000   1.0000   1.0000   1.0000   1.0000   1.0000   1.0675   0.0000
     0.0000   0.0000   0.0000   0.0000   0.0000

          k = 0.3125 0.5413 0.0770 (  2165 PWs)   bands (ev):

   -74.5730 -74.5692 -37.7467 -37.7218 -37.7051 -37.6508 -37.6249 -37.6051
    16.8642  16.8662  17.0950  17.1348  18.3702  18.4304  19.4117  20.5658
    20.6585  20.7798  24.3986  26.0540  26.0790

     occupation numbers 
     1.0000   1.0000   1.0000   1.0000   1.0000   1.0000   1.0000   1.0000
     1.0000   1.0000   1.0000   1.0000   1.0000   1.0000   1.0710   0.0000
     0.0000   0.0000   0.0000   0.0000   0.0000

          k = 0.3125 0.5413 0.1155 (  2166 PWs)   bands (ev):

   -74.5728 -74.5694 -37.7455 -37.7339 -37.7142 -37.6553 -37.6112 -37.5942
    16.8866  16.9095  17.1569  17.1733  18.3398  18.3519  19.4040  20.4845
    20.6058  20.8090  24.5425  26.0510  26.2439

     occupation numbers 
     1.0000   1.0000   1.0000   1.0000   1.0000   1.0000   1.0000   1.0000
     1.0000   1.0000   1.0000   1.0000   1.0000   1.0000   1.0743   0.0000
     0.0000   0.0000   0.0000   0.0000   0.0000

          k = 0.3125 0.5413 0.1540 (  2166 PWs)   bands (ev):

   -74.5725 -74.5696 -37.7471 -37.7453 -37.7189 -37.6613 -37.5977 -37.5838
    16.9163  16.9614  17.1923  17.2686  18.2560  18.2965  19.4010  20.2900
    20.6470  20.8376  24.7122  26.0278  26.4768

     occupation numbers 
     1.0000   1.0000   1.0000   1.0000   1.0000   1.0000   1.0000   1.0000
     1.0000   1.0000   1.0000   1.0000   1.0000   1.0000   1.0755   0.0003
     0.0000   0.0000   0.0000   0.0000   0.0000

          k = 0.3125 0.5413 0.1925 (  2166 PWs)   bands (ev):

   -74.5722 -74.5699 -37.7547 -37.7527 -37.7169 -37.6684 -37.5859 -37.5752
    16.9516  17.0069  17.2471  17.3696  18.1551  18.2402  19.4101  20.0869
    20.6959  20.8582  24.8967  25.9671  26.7730

     occupation numbers 
     1.0000   1.0000   1.0000   1.0000   1.0000   1.0000   1.0000   1.0000
     1.0000   1.0000   1.0000   1.0000   1.0000   1.0000   1.0717   0.0104
     0.0000   0.0000   0.0000   0.0000   0.0000

          k = 0.3125 0.5413 0.2310 (  2175 PWs)   bands (ev):

   -74.5719 -74.5703 -37.7616 -37.7592 -37.7109 -37.6766 -37.5764 -37.5691
    16.9873  17.0355  17.3222  17.4576  18.0672  18.1726  19.4402  19.8946
    20.7465  20.8655  25.0919  25.8558  27.1222

     occupation numbers 
     1.0000   1.0000   1.0000   1.0000   1.0000   1.0000   1.0000   1.0000
     1.0000   1.0000   1.0000   1.0000   1.0000   1.0000   1.0532   0.1144
     0.0000   0.0000   0.0000   0.0000   0.0000

          k = 0.3125 0.5413 0.2695 (  2174 PWs)   bands (ev):

   -74.5715 -74.5707 -37.7655 -37.7641 -37.7030 -37.6853 -37.5697 -37.5660
    17.0178  17.0453  17.4070  17.5018  18.0213  18.1000  19.4996  19.7275
    20.7936  20.8566  25.2958  25.6952  27.5093

     occupation numbers 
     1.0000   1.0000   1.0000   1.0000   1.0000   1.0000   1.0000   1.0000
     1.0000   1.0000   1.0000   1.0000   1.0000   1.0000   0.9856   0.4332
     0.0000   0.0000   0.0000   0.0000   0.0000

          k = 0.3125 0.5413-0.3080 (  2182 PWs)   bands (ev):

   -74.5711 -74.5711 -37.7663 -37.7663 -37.6943 -37.6943 -37.5662 -37.5662
    17.0384  17.0384  17.4785  17.4785  18.0389  18.0389  19.5947  19.5947
    20.8317  20.8317  25.5017  25.5017  27.9142

     occupation numbers 
     1.0000   1.0000   1.0000   1.0000   1.0000   1.0000   1.0000   1.0000
     1.0000   1.0000   1.0000   1.0000   1.0000   1.0000   0.7912   0.7912
     0.0000   0.0000   0.0000   0.0000   0.0000

     the Fermi energy is    19.7403 ev

!    total energy              =    -541.97395833 Ry
     estimated scf accuracy    <          7.0E-11 Ry
     smearing contrib. (-TS)   =       0.00090699 Ry
     internal energy E=F+TS    =    -541.97486532 Ry

     The total energy is F=E-TS. E is the sum of the following terms:
     one-electron contribution =    -219.70298339 Ry
     hartree contribution      =     129.18309893 Ry
     xc contribution           =     -55.15709954 Ry
     ewald contribution        =    -396.29788131 Ry

     total magnetization       =     3.25 Bohr mag/cell
     absolute magnetization    =     3.63 Bohr mag/cell

     convergence has been achieved in  13 iterations

     Writing all to output data dir ./Co.save/
 
     init_run     :      0.24s CPU      0.27s WALL (       1 calls)
     electrons    :     14.80s CPU     14.88s WALL (       1 calls)

     Called by init_run:
     wfcinit      :      0.17s CPU      0.17s WALL (       1 calls)
     wfcinit:wfcr :      0.14s CPU      0.14s WALL (       9 calls)
     potinit      :      0.06s CPU      0.08s WALL (       1 calls)
     hinit0       :      0.00s CPU      0.01s WALL (       1 calls)

     Called by electrons:
     c_bands      :     11.81s CPU     11.85s WALL (      13 calls)
     sum_band     :      1.70s CPU      1.71s WALL (      13 calls)
     v_of_rho     :      0.72s CPU      0.74s WALL (      14 calls)
     v_h          :      0.01s CPU      0.01s WALL (      14 calls)
     v_xc         :      0.71s CPU      0.73s WALL (      14 calls)
     mix_rho      :      0.07s CPU      0.09s WALL (      13 calls)

     Called by c_bands:
     init_us_2    :      0.10s CPU      0.10s WALL (     243 calls)
     init_us_2:cp :      0.10s CPU      0.10s WALL (     243 calls)
     cegterg      :      5.75s CPU      5.77s WALL (     117 calls)

     Called by sum_band:
     sum_band:wei :      0.07s CPU      0.07s WALL (      13 calls)
     sum_band:loo :      0.85s CPU      0.85s WALL (      13 calls)
     sum_band:buf :      0.01s CPU      0.01s WALL (     117 calls)
     sum_band:ini :      0.05s CPU      0.05s WALL (     117 calls)

     Called by *egterg:
     cdiaghg      :      0.18s CPU      0.18s WALL (     400 calls)
     cegterg:over :      0.23s CPU      0.23s WALL (     283 calls)
     cegterg:upda :      0.14s CPU      0.14s WALL (     283 calls)
     cegterg:last :      0.23s CPU      0.23s WALL (     270 calls)
     h_psi        :      4.99s CPU      5.00s WALL (     409 calls)
     g_psi        :      0.02s CPU      0.02s WALL (     283 calls)

     Called by h_psi:
     h_psi:calbec :      0.17s CPU      0.17s WALL (     409 calls)
     vloc_psi     :      4.63s CPU      4.65s WALL (     409 calls)
     add_vuspsi   :      0.16s CPU      0.16s WALL (     409 calls)

     General routines
     calbec       :      0.17s CPU      0.17s WALL (     409 calls)
     fft          :      0.12s CPU      0.12s WALL (     263 calls)
     ffts         :      0.01s CPU      0.01s WALL (      26 calls)
     fftw         :      4.84s CPU      4.86s WALL (   17325 calls)
 
     Parallel routines
 
     PWSCF        :     15.34s CPU     15.54s WALL

 
   This run was terminated on:  15:18:33  20May2023            

=------------------------------------------------------------------------------=
   JOB DONE.
=------------------------------------------------------------------------------=
Warning: ieee_invalid is signaling
Warning: ieee_underflow is signaling
Warning: ieee_inexact is signaling
FORTRAN STOP
Warning: ieee_invalid is signaling
Warning: ieee_underflow is signaling
Warning: ieee_inexact is signaling
FORTRAN STOP
Warning: ieee_invalid is signaling
Warning: ieee_underflow is signaling
Warning: ieee_inexact is signaling
FORTRAN STOP
Warning: ieee_invalid is signaling
Warning: ieee_underflow is signaling
Warning: ieee_inexact is signaling
FORTRAN STOP
Warning: ieee_invalid is signaling
Warning: ieee_underflow is signaling
Warning: ieee_inexact is signaling
FORTRAN STOP
Warning: ieee_invalid is signaling
Warning: ieee_underflow is signaling
Warning: ieee_inexact is signaling
FORTRAN STOP
Warning: ieee_invalid is signaling
Warning: ieee_underflow is signaling
Warning: ieee_inexact is signaling
FORTRAN STOP
Warning: ieee_invalid is signaling
Warning: ieee_underflow is signaling
Warning: ieee_inexact is signaling
FORTRAN STOP
Warning: ieee_invalid is signaling
Warning: ieee_underflow is signaling
Warning: ieee_inexact is signaling
FORTRAN STOP
Warning: ieee_invalid is signaling
Warning: ieee_underflow is signaling
Warning: ieee_inexact is signaling
FORTRAN STOP
Warning: ieee_invalid is signaling
Warning: ieee_underflow is signaling
Warning: ieee_inexact is signaling
FORTRAN STOP
Warning: ieee_invalid is signaling
Warning: ieee_underflow is signaling
Warning: ieee_inexact is signaling
FORTRAN STOP
Warning: ieee_invalid is signaling
Warning: ieee_underflow is signaling
Warning: ieee_inexact is signaling
FORTRAN STOP
Warning: ieee_invalid is signaling
Warning: ieee_underflow is signaling
Warning: ieee_inexact is signaling
FORTRAN STOP
Warning: ieee_invalid is signaling
Warning: ieee_underflow is signaling
Warning: ieee_inexact is signaling
FORTRAN STOP
Warning: ieee_invalid is signaling
Warning: ieee_underflow is signaling
Warning: ieee_inexact is signaling
FORTRAN STOP
Warning: ieee_invalid is signaling
Warning: ieee_underflow is signaling
Warning: ieee_inexact is signaling
FORTRAN STOP
Warning: ieee_invalid is signaling
Warning: ieee_underflow is signaling
Warning: ieee_inexact is signaling
FORTRAN STOP
Warning: ieee_invalid is signaling
Warning: ieee_underflow is signaling
Warning: ieee_inexact is signaling
FORTRAN STOP
Warning: ieee_invalid is signaling
Warning: ieee_underflow is signaling
Warning: ieee_inexact is signaling
FORTRAN STOP
Warning: ieee_invalid is signaling
Warning: ieee_underflow is signaling
Warning: ieee_inexact is signaling
FORTRAN STOP
Warning: ieee_invalid is signaling
Warning: ieee_underflow is signaling
Warning: ieee_inexact is signaling
FORTRAN STOP
Warning: ieee_invalid is signaling
Warning: ieee_underflow is signaling
Warning: ieee_inexact is signaling
FORTRAN STOP
Warning: ieee_invalid is signaling
Warning: ieee_underflow is signaling
Warning: ieee_inexact is signaling
FORTRAN STOP
Warning: ieee_invalid is signaling
Warning: ieee_underflow is signaling
Warning: ieee_inexact is signaling
FORTRAN STOP
Warning: ieee_invalid is signaling
Warning: ieee_underflow is signaling
Warning: ieee_inexact is signaling
FORTRAN STOP
Warning: ieee_invalid is signaling
Warning: ieee_underflow is signaling
Warning: ieee_inexact is signaling
FORTRAN STOP
Warning: ieee_invalid is signaling
Warning: ieee_underflow is signaling
Warning: ieee_inexact is signaling
FORTRAN STOP
Warning: ieee_invalid is signaling
Warning: ieee_underflow is signaling
Warning: ieee_inexact is signaling
FORTRAN STOP
Warning: ieee_invalid is signaling
Warning: ieee_underflow is signaling
Warning: ieee_inexact is signaling
FORTRAN STOP
Warning: ieee_invalid is signaling
Warning: ieee_underflow is signaling
Warning: ieee_inexact is signaling
FORTRAN STOP
Warning: ieee_invalid is signaling
Warning: ieee_underflow is signaling
Warning: ieee_inexact is signaling
FORTRAN STOP
Warning: ieee_invalid is signaling
Warning: ieee_underflow is signaling
Warning: ieee_inexact is signaling
FORTRAN STOP
Warning: ieee_invalid is signaling
Warning: ieee_underflow is signaling
Warning: ieee_inexact is signaling
FORTRAN STOP
Warning: ieee_invalid is signaling
Warning: ieee_underflow is signaling
Warning: ieee_inexact is signaling
FORTRAN STOP
Warning: ieee_invalid is signaling
Warning: ieee_underflow is signaling
Warning: ieee_inexact is signaling
FORTRAN STOP
Warning: ieee_invalid is signaling
Warning: ieee_underflow is signaling
Warning: ieee_inexact is signaling
FORTRAN STOP
Warning: ieee_invalid is signaling
Warning: ieee_underflow is signaling
Warning: ieee_inexact is signaling
FORTRAN STOP
Warning: ieee_invalid is signaling
Warning: ieee_underflow is signaling
Warning: ieee_inexact is signaling
FORTRAN STOP
Warning: ieee_invalid is signaling
Warning: ieee_underflow is signaling
Warning: ieee_inexact is signaling
FORTRAN STOP
Warning: ieee_invalid is signaling
Warning: ieee_underflow is signaling
Warning: ieee_inexact is signaling
FORTRAN STOP
Warning: ieee_invalid is signaling
Warning: ieee_underflow is signaling
Warning: ieee_inexact is signaling
FORTRAN STOP
Warning: ieee_invalid is signaling
Warning: ieee_underflow is signaling
Warning: ieee_inexact is signaling
FORTRAN STOP
Warning: ieee_invalid is signaling
Warning: ieee_underflow is signaling
Warning: ieee_inexact is signaling
FORTRAN STOP
Warning: ieee_invalid is signaling
Warning: ieee_underflow is signaling
Warning: ieee_inexact is signaling
FORTRAN STOP
Warning: ieee_invalid is signaling
Warning: ieee_underflow is signaling
Warning: ieee_inexact is signaling
FORTRAN STOP
Warning: ieee_invalid is signaling
Warning: ieee_underflow is signaling
Warning: ieee_inexact is signaling
FORTRAN STOP
Warning: ieee_invalid is signaling
Warning: ieee_underflow is signaling
Warning: ieee_inexact is signaling
FORTRAN STOP
Warning: ieee_invalid is signaling
Warning: ieee_underflow is signaling
Warning: ieee_inexact is signaling
FORTRAN STOP
Warning: ieee_invalid is signaling
Warning: ieee_underflow is signaling
Warning: ieee_inexact is signaling
FORTRAN STOP
Warning: ieee_invalid is signaling
Warning: ieee_underflow is signaling
Warning: ieee_inexact is signaling
FORTRAN STOP
Warning: ieee_invalid is signaling
Warning: ieee_underflow is signaling
Warning: ieee_inexact is signaling
FORTRAN STOP
Warning: ieee_invalid is signaling
Warning: ieee_underflow is signaling
Warning: ieee_inexact is signaling
FORTRAN STOP
Warning: ieee_invalid is signaling
Warning: ieee_underflow is signaling
Warning: ieee_inexact is signaling
FORTRAN STOP
Warning: ieee_invalid is signaling
Warning: ieee_underflow is signaling
Warning: ieee_inexact is signaling
FORTRAN STOP
Warning: ieee_invalid is signaling
Warning: ieee_underflow is signaling
Warning: ieee_inexact is signaling
FORTRAN STOP
Warning: ieee_invalid is signaling
Warning: ieee_underflow is signaling
Warning: ieee_inexact is signaling
FORTRAN STOP
Warning: ieee_invalid is signaling
Warning: ieee_underflow is signaling
Warning: ieee_inexact is signaling
FORTRAN STOP
Warning: ieee_invalid is signaling
Warning: ieee_underflow is signaling
Warning: ieee_inexact is signaling
FORTRAN STOP
Warning: ieee_invalid is signaling
Warning: ieee_underflow is signaling
Warning: ieee_inexact is signaling
FORTRAN STOP
Warning: ieee_invalid is signaling
Warning: ieee_underflow is signaling
Warning: ieee_inexact is signaling
FORTRAN STOP
Warning: ieee_invalid is signaling
Warning: ieee_underflow is signaling
Warning: ieee_inexact is signaling
FORTRAN STOP
Warning: ieee_invalid is signaling
Warning: ieee_underflow is signaling
Warning: ieee_inexact is signaling
FORTRAN STOP
Warning: ieee_invalid is signaling
Warning: ieee_underflow is signaling
Warning: ieee_inexact is signaling
FORTRAN STOP
