
     Program PWSCF v.7.1 starts on 20May2023 at 15:21:25 

     This program is part of the open-source Quantum ESPRESSO suite
     for quantum simulation of materials; please cite
         "P. Giannozzi et al., J. Phys.:Condens. Matter 21 395502 (2009);
         "P. Giannozzi et al., J. Phys.:Condens. Matter 29 465901 (2017);
         "P. Giannozzi et al., J. Chem. Phys. 152 154105 (2020);
          URL http://www.quantum-espresso.org", 
     in publications or presentations arising from this work. More details at
     http://www.quantum-espresso.org/quote

     Parallel version (MPI & OpenMP), running on      50 processor cores
     Number of MPI processes:                50
     Threads/MPI process:                     1

     MPI processes distributed on     1 nodes
     9026 MiB available memory on the printing compute node when the environment starts
 
     Reading input from Co.nscf.in

     Current dimensions of program PWSCF are:
     Max number of different atomic species (ntypx) = 10
     Max number of k-points (npk) =  40000
     Max angular momentum in pseudopotentials (lmaxx) =  4

     Atomic positions and unit cell read from directory:
     ./Co.save/
     Atomic positions from file used, from input discarded
 
Error reading attribute index: expected integer, found *
 
     K-points division:     npool     =      50
     Subspace diagonalization in iterative solution of the eigenvalue problem:
     a serial algorithm will be used

 
     G-vector sticks info
     --------------------
     sticks:   dense  smooth     PW     G-vecs:    dense   smooth      PW
     Sum         559     559    223                17261    17261    4307
 
     Using Slab Decomposition
 


     bravais-lattice index     =            4
     lattice parameter (alat)  =       4.7377  a.u.
     unit-cell volume          =     149.4877 (a.u.)^3
     number of atoms/cell      =            2
     number of atomic types    =            1
     number of electrons       =        34.00
     number of Kohn-Sham states=           48
     kinetic-energy cutoff     =      90.0000  Ry
     charge density cutoff     =     360.0000  Ry
     Exchange-correlation= PBE
                           (   1   4   3   4   0   0   0)

     celldm(1)=   4.737700  celldm(2)=   0.000000  celldm(3)=   1.623200
     celldm(4)=   0.000000  celldm(5)=   0.000000  celldm(6)=   0.000000

     crystal axes: (cart. coord. in units of alat)
               a(1) = (   1.000000   0.000000   0.000000 )  
               a(2) = (  -0.500000   0.866025   0.000000 )  
               a(3) = (   0.000000   0.000000   1.623200 )  

     reciprocal axes: (cart. coord. in units 2 pi/alat)
               b(1) = (  1.000000  0.577350 -0.000000 )  
               b(2) = (  0.000000  1.154701  0.000000 )  
               b(3) = (  0.000000 -0.000000  0.616067 )  


     PseudoPot. # 1 for Co read from file:
     ./Co_ONCV_PBE_FR-1.0.upf
     MD5 check sum: 5200631a6ab1dc1b53d71ef650dcc2c4
     Pseudo is Norm-conserving, Zval = 17.0
     Generated using ONCVPSP code by D. R. Hamann
     Using radial grid of  602 points,  6 beta functions with: 
                l(1) =   0
                l(2) =   0
                l(3) =   1
                l(4) =   1
                l(5) =   2
                l(6) =   2

     atomic species   valence    mass     pseudopotential
        Co            17.00    58.93300     Co( 1.00)

     Starting magnetic structure 
     atomic species   magnetization
        Co           0.700

     No symmetry found


                                    s                        frac. trans.

      isym =  1     identity                                     

 cryst.   s( 1) = (     1          0          0      )
                  (     0          1          0      )
                  (     0          0          1      )

 cart.    s( 1) = (  1.0000000  0.0000000  0.0000000 )
                  (  0.0000000  1.0000000  0.0000000 )
                  (  0.0000000  0.0000000  1.0000000 )


     point group C_1 (1)    
     there are  1 classes
     the character table:

       E    
A      1.00

     the symmetry operations in each class and the name of the first element:

     E        1
          identity                                               

   Cartesian axes

     site n.     atom                  positions (alat units)
         1           Co  tau(   1) = (  -0.0000000   0.5773503   0.4058000  )
         2           Co  tau(   2) = (   0.5000000   0.2886751   1.2174000  )

   Crystallographic axes

     site n.     atom                  positions (cryst. coord.)
         1           Co  tau(   1) = (  0.3333333  0.6666667  0.2500000  )
         2           Co  tau(   2) = (  0.6666667  0.3333333  0.7500000  )

     number of k points=  1000  Marzari-Vanderbilt smearing, width (Ry)=  0.0200
                       cart. coord. in units 2pi/alat
        k(    1) = (   0.0000000   0.0000000   0.0000000), wk =   0.0010000
        k(    2) = (   0.0000000   0.0000000   0.0616067), wk =   0.0010000
        k(    3) = (   0.0000000   0.0000000   0.1232134), wk =   0.0010000
        k(    4) = (   0.0000000   0.0000000   0.1848201), wk =   0.0010000
        k(    5) = (   0.0000000   0.0000000   0.2464268), wk =   0.0010000
        k(    6) = (   0.0000000   0.0000000   0.3080335), wk =   0.0010000
        k(    7) = (   0.0000000   0.0000000   0.3696402), wk =   0.0010000
        k(    8) = (   0.0000000   0.0000000   0.4312469), wk =   0.0010000
        k(    9) = (   0.0000000   0.0000000   0.4928536), wk =   0.0010000
        k(   10) = (   0.0000000   0.0000000   0.5544603), wk =   0.0010000
        k(   11) = (   0.0000000   0.1154701   0.0000000), wk =   0.0010000
        k(   12) = (   0.0000000   0.1154701   0.0616067), wk =   0.0010000
        k(   13) = (   0.0000000   0.1154701   0.1232134), wk =   0.0010000
        k(   14) = (   0.0000000   0.1154701   0.1848201), wk =   0.0010000
        k(   15) = (   0.0000000   0.1154701   0.2464268), wk =   0.0010000
        k(   16) = (   0.0000000   0.1154701   0.3080335), wk =   0.0010000
        k(   17) = (   0.0000000   0.1154701   0.3696402), wk =   0.0010000
        k(   18) = (   0.0000000   0.1154701   0.4312469), wk =   0.0010000
        k(   19) = (   0.0000000   0.1154701   0.4928536), wk =   0.0010000
        k(   20) = (   0.0000000   0.1154701   0.5544603), wk =   0.0010000
        k(   21) = (   0.0000000   0.2309401   0.0000000), wk =   0.0010000
        k(   22) = (   0.0000000   0.2309401   0.0616067), wk =   0.0010000
        k(   23) = (   0.0000000   0.2309401   0.1232134), wk =   0.0010000
        k(   24) = (   0.0000000   0.2309401   0.1848201), wk =   0.0010000
        k(   25) = (   0.0000000   0.2309401   0.2464268), wk =   0.0010000
        k(   26) = (   0.0000000   0.2309401   0.3080335), wk =   0.0010000
        k(   27) = (   0.0000000   0.2309401   0.3696402), wk =   0.0010000
        k(   28) = (   0.0000000   0.2309401   0.4312469), wk =   0.0010000
        k(   29) = (   0.0000000   0.2309401   0.4928536), wk =   0.0010000
        k(   30) = (   0.0000000   0.2309401   0.5544603), wk =   0.0010000
        k(   31) = (   0.0000000   0.3464102   0.0000000), wk =   0.0010000
        k(   32) = (   0.0000000   0.3464102   0.0616067), wk =   0.0010000
        k(   33) = (   0.0000000   0.3464102   0.1232134), wk =   0.0010000
        k(   34) = (   0.0000000   0.3464102   0.1848201), wk =   0.0010000
        k(   35) = (   0.0000000   0.3464102   0.2464268), wk =   0.0010000
        k(   36) = (   0.0000000   0.3464102   0.3080335), wk =   0.0010000
        k(   37) = (   0.0000000   0.3464102   0.3696402), wk =   0.0010000
        k(   38) = (   0.0000000   0.3464102   0.4312469), wk =   0.0010000
        k(   39) = (   0.0000000   0.3464102   0.4928536), wk =   0.0010000
        k(   40) = (   0.0000000   0.3464102   0.5544603), wk =   0.0010000
        k(   41) = (   0.0000000   0.4618802   0.0000000), wk =   0.0010000
        k(   42) = (   0.0000000   0.4618802   0.0616067), wk =   0.0010000
        k(   43) = (   0.0000000   0.4618802   0.1232134), wk =   0.0010000
        k(   44) = (   0.0000000   0.4618802   0.1848201), wk =   0.0010000
        k(   45) = (   0.0000000   0.4618802   0.2464268), wk =   0.0010000
        k(   46) = (   0.0000000   0.4618802   0.3080335), wk =   0.0010000
        k(   47) = (   0.0000000   0.4618802   0.3696402), wk =   0.0010000
        k(   48) = (   0.0000000   0.4618802   0.4312469), wk =   0.0010000
        k(   49) = (   0.0000000   0.4618802   0.4928536), wk =   0.0010000
        k(   50) = (   0.0000000   0.4618802   0.5544603), wk =   0.0010000
        k(   51) = (   0.0000000   0.5773503   0.0000000), wk =   0.0010000
        k(   52) = (   0.0000000   0.5773503   0.0616067), wk =   0.0010000
        k(   53) = (   0.0000000   0.5773503   0.1232134), wk =   0.0010000
        k(   54) = (   0.0000000   0.5773503   0.1848201), wk =   0.0010000
        k(   55) = (   0.0000000   0.5773503   0.2464268), wk =   0.0010000
        k(   56) = (   0.0000000   0.5773503   0.3080335), wk =   0.0010000
        k(   57) = (   0.0000000   0.5773503   0.3696402), wk =   0.0010000
        k(   58) = (   0.0000000   0.5773503   0.4312469), wk =   0.0010000
        k(   59) = (   0.0000000   0.5773503   0.4928536), wk =   0.0010000
        k(   60) = (   0.0000000   0.5773503   0.5544603), wk =   0.0010000
        k(   61) = (   0.0000000   0.6928203   0.0000000), wk =   0.0010000
        k(   62) = (   0.0000000   0.6928203   0.0616067), wk =   0.0010000
        k(   63) = (   0.0000000   0.6928203   0.1232134), wk =   0.0010000
        k(   64) = (   0.0000000   0.6928203   0.1848201), wk =   0.0010000
        k(   65) = (   0.0000000   0.6928203   0.2464268), wk =   0.0010000
        k(   66) = (   0.0000000   0.6928203   0.3080335), wk =   0.0010000
        k(   67) = (   0.0000000   0.6928203   0.3696402), wk =   0.0010000
        k(   68) = (   0.0000000   0.6928203   0.4312469), wk =   0.0010000
        k(   69) = (   0.0000000   0.6928203   0.4928536), wk =   0.0010000
        k(   70) = (   0.0000000   0.6928203   0.5544603), wk =   0.0010000
        k(   71) = (   0.0000000   0.8082904   0.0000000), wk =   0.0010000
        k(   72) = (   0.0000000   0.8082904   0.0616067), wk =   0.0010000
        k(   73) = (   0.0000000   0.8082904   0.1232134), wk =   0.0010000
        k(   74) = (   0.0000000   0.8082904   0.1848201), wk =   0.0010000
        k(   75) = (   0.0000000   0.8082904   0.2464268), wk =   0.0010000
        k(   76) = (   0.0000000   0.8082904   0.3080335), wk =   0.0010000
        k(   77) = (   0.0000000   0.8082904   0.3696402), wk =   0.0010000
        k(   78) = (   0.0000000   0.8082904   0.4312469), wk =   0.0010000
        k(   79) = (   0.0000000   0.8082904   0.4928536), wk =   0.0010000
        k(   80) = (   0.0000000   0.8082904   0.5544603), wk =   0.0010000
        k(   81) = (   0.0000000   0.9237604   0.0000000), wk =   0.0010000
        k(   82) = (   0.0000000   0.9237604   0.0616067), wk =   0.0010000
        k(   83) = (   0.0000000   0.9237604   0.1232134), wk =   0.0010000
        k(   84) = (   0.0000000   0.9237604   0.1848201), wk =   0.0010000
        k(   85) = (   0.0000000   0.9237604   0.2464268), wk =   0.0010000
        k(   86) = (   0.0000000   0.9237604   0.3080335), wk =   0.0010000
        k(   87) = (   0.0000000   0.9237604   0.3696402), wk =   0.0010000
        k(   88) = (   0.0000000   0.9237604   0.4312469), wk =   0.0010000
        k(   89) = (   0.0000000   0.9237604   0.4928536), wk =   0.0010000
        k(   90) = (   0.0000000   0.9237604   0.5544603), wk =   0.0010000
        k(   91) = (   0.0000000   1.0392305   0.0000000), wk =   0.0010000
        k(   92) = (   0.0000000   1.0392305   0.0616067), wk =   0.0010000
        k(   93) = (   0.0000000   1.0392305   0.1232134), wk =   0.0010000
        k(   94) = (   0.0000000   1.0392305   0.1848201), wk =   0.0010000
        k(   95) = (   0.0000000   1.0392305   0.2464268), wk =   0.0010000
        k(   96) = (   0.0000000   1.0392305   0.3080335), wk =   0.0010000
        k(   97) = (   0.0000000   1.0392305   0.3696402), wk =   0.0010000
        k(   98) = (   0.0000000   1.0392305   0.4312469), wk =   0.0010000
        k(   99) = (   0.0000000   1.0392305   0.4928536), wk =   0.0010000
        k(  100) = (   0.0000000   1.0392305   0.5544603), wk =   0.0010000
        k(  101) = (   0.1000000   0.0577350   0.0000000), wk =   0.0010000
        k(  102) = (   0.1000000   0.0577350   0.0616067), wk =   0.0010000
        k(  103) = (   0.1000000   0.0577350   0.1232134), wk =   0.0010000
        k(  104) = (   0.1000000   0.0577350   0.1848201), wk =   0.0010000
        k(  105) = (   0.1000000   0.0577350   0.2464268), wk =   0.0010000
        k(  106) = (   0.1000000   0.0577350   0.3080335), wk =   0.0010000
        k(  107) = (   0.1000000   0.0577350   0.3696402), wk =   0.0010000
        k(  108) = (   0.1000000   0.0577350   0.4312469), wk =   0.0010000
        k(  109) = (   0.1000000   0.0577350   0.4928536), wk =   0.0010000
        k(  110) = (   0.1000000   0.0577350   0.5544603), wk =   0.0010000
        k(  111) = (   0.1000000   0.1732051   0.0000000), wk =   0.0010000
        k(  112) = (   0.1000000   0.1732051   0.0616067), wk =   0.0010000
        k(  113) = (   0.1000000   0.1732051   0.1232134), wk =   0.0010000
        k(  114) = (   0.1000000   0.1732051   0.1848201), wk =   0.0010000
        k(  115) = (   0.1000000   0.1732051   0.2464268), wk =   0.0010000
        k(  116) = (   0.1000000   0.1732051   0.3080335), wk =   0.0010000
        k(  117) = (   0.1000000   0.1732051   0.3696402), wk =   0.0010000
        k(  118) = (   0.1000000   0.1732051   0.4312469), wk =   0.0010000
        k(  119) = (   0.1000000   0.1732051   0.4928536), wk =   0.0010000
        k(  120) = (   0.1000000   0.1732051   0.5544603), wk =   0.0010000
        k(  121) = (   0.1000000   0.2886751   0.0000000), wk =   0.0010000
        k(  122) = (   0.1000000   0.2886751   0.0616067), wk =   0.0010000
        k(  123) = (   0.1000000   0.2886751   0.1232134), wk =   0.0010000
        k(  124) = (   0.1000000   0.2886751   0.1848201), wk =   0.0010000
        k(  125) = (   0.1000000   0.2886751   0.2464268), wk =   0.0010000
        k(  126) = (   0.1000000   0.2886751   0.3080335), wk =   0.0010000
        k(  127) = (   0.1000000   0.2886751   0.3696402), wk =   0.0010000
        k(  128) = (   0.1000000   0.2886751   0.4312469), wk =   0.0010000
        k(  129) = (   0.1000000   0.2886751   0.4928536), wk =   0.0010000
        k(  130) = (   0.1000000   0.2886751   0.5544603), wk =   0.0010000
        k(  131) = (   0.1000000   0.4041452   0.0000000), wk =   0.0010000
        k(  132) = (   0.1000000   0.4041452   0.0616067), wk =   0.0010000
        k(  133) = (   0.1000000   0.4041452   0.1232134), wk =   0.0010000
        k(  134) = (   0.1000000   0.4041452   0.1848201), wk =   0.0010000
        k(  135) = (   0.1000000   0.4041452   0.2464268), wk =   0.0010000
        k(  136) = (   0.1000000   0.4041452   0.3080335), wk =   0.0010000
        k(  137) = (   0.1000000   0.4041452   0.3696402), wk =   0.0010000
        k(  138) = (   0.1000000   0.4041452   0.4312469), wk =   0.0010000
        k(  139) = (   0.1000000   0.4041452   0.4928536), wk =   0.0010000
        k(  140) = (   0.1000000   0.4041452   0.5544603), wk =   0.0010000
        k(  141) = (   0.1000000   0.5196152   0.0000000), wk =   0.0010000
        k(  142) = (   0.1000000   0.5196152   0.0616067), wk =   0.0010000
        k(  143) = (   0.1000000   0.5196152   0.1232134), wk =   0.0010000
        k(  144) = (   0.1000000   0.5196152   0.1848201), wk =   0.0010000
        k(  145) = (   0.1000000   0.5196152   0.2464268), wk =   0.0010000
        k(  146) = (   0.1000000   0.5196152   0.3080335), wk =   0.0010000
        k(  147) = (   0.1000000   0.5196152   0.3696402), wk =   0.0010000
        k(  148) = (   0.1000000   0.5196152   0.4312469), wk =   0.0010000
        k(  149) = (   0.1000000   0.5196152   0.4928536), wk =   0.0010000
        k(  150) = (   0.1000000   0.5196152   0.5544603), wk =   0.0010000
        k(  151) = (   0.1000000   0.6350853   0.0000000), wk =   0.0010000
        k(  152) = (   0.1000000   0.6350853   0.0616067), wk =   0.0010000
        k(  153) = (   0.1000000   0.6350853   0.1232134), wk =   0.0010000
        k(  154) = (   0.1000000   0.6350853   0.1848201), wk =   0.0010000
        k(  155) = (   0.1000000   0.6350853   0.2464268), wk =   0.0010000
        k(  156) = (   0.1000000   0.6350853   0.3080335), wk =   0.0010000
        k(  157) = (   0.1000000   0.6350853   0.3696402), wk =   0.0010000
        k(  158) = (   0.1000000   0.6350853   0.4312469), wk =   0.0010000
        k(  159) = (   0.1000000   0.6350853   0.4928536), wk =   0.0010000
        k(  160) = (   0.1000000   0.6350853   0.5544603), wk =   0.0010000
        k(  161) = (   0.1000000   0.7505553   0.0000000), wk =   0.0010000
        k(  162) = (   0.1000000   0.7505553   0.0616067), wk =   0.0010000
        k(  163) = (   0.1000000   0.7505553   0.1232134), wk =   0.0010000
        k(  164) = (   0.1000000   0.7505553   0.1848201), wk =   0.0010000
        k(  165) = (   0.1000000   0.7505553   0.2464268), wk =   0.0010000
        k(  166) = (   0.1000000   0.7505553   0.3080335), wk =   0.0010000
        k(  167) = (   0.1000000   0.7505553   0.3696402), wk =   0.0010000
        k(  168) = (   0.1000000   0.7505553   0.4312469), wk =   0.0010000
        k(  169) = (   0.1000000   0.7505553   0.4928536), wk =   0.0010000
        k(  170) = (   0.1000000   0.7505553   0.5544603), wk =   0.0010000
        k(  171) = (   0.1000000   0.8660254   0.0000000), wk =   0.0010000
        k(  172) = (   0.1000000   0.8660254   0.0616067), wk =   0.0010000
        k(  173) = (   0.1000000   0.8660254   0.1232134), wk =   0.0010000
        k(  174) = (   0.1000000   0.8660254   0.1848201), wk =   0.0010000
        k(  175) = (   0.1000000   0.8660254   0.2464268), wk =   0.0010000
        k(  176) = (   0.1000000   0.8660254   0.3080335), wk =   0.0010000
        k(  177) = (   0.1000000   0.8660254   0.3696402), wk =   0.0010000
        k(  178) = (   0.1000000   0.8660254   0.4312469), wk =   0.0010000
        k(  179) = (   0.1000000   0.8660254   0.4928536), wk =   0.0010000
        k(  180) = (   0.1000000   0.8660254   0.5544603), wk =   0.0010000
        k(  181) = (   0.1000000   0.9814955   0.0000000), wk =   0.0010000
        k(  182) = (   0.1000000   0.9814955   0.0616067), wk =   0.0010000
        k(  183) = (   0.1000000   0.9814955   0.1232134), wk =   0.0010000
        k(  184) = (   0.1000000   0.9814955   0.1848201), wk =   0.0010000
        k(  185) = (   0.1000000   0.9814955   0.2464268), wk =   0.0010000
        k(  186) = (   0.1000000   0.9814955   0.3080335), wk =   0.0010000
        k(  187) = (   0.1000000   0.9814955   0.3696402), wk =   0.0010000
        k(  188) = (   0.1000000   0.9814955   0.4312469), wk =   0.0010000
        k(  189) = (   0.1000000   0.9814955   0.4928536), wk =   0.0010000
        k(  190) = (   0.1000000   0.9814955   0.5544603), wk =   0.0010000
        k(  191) = (   0.1000000   1.0969655   0.0000000), wk =   0.0010000
        k(  192) = (   0.1000000   1.0969655   0.0616067), wk =   0.0010000
        k(  193) = (   0.1000000   1.0969655   0.1232134), wk =   0.0010000
        k(  194) = (   0.1000000   1.0969655   0.1848201), wk =   0.0010000
        k(  195) = (   0.1000000   1.0969655   0.2464268), wk =   0.0010000
        k(  196) = (   0.1000000   1.0969655   0.3080335), wk =   0.0010000
        k(  197) = (   0.1000000   1.0969655   0.3696402), wk =   0.0010000
        k(  198) = (   0.1000000   1.0969655   0.4312469), wk =   0.0010000
        k(  199) = (   0.1000000   1.0969655   0.4928536), wk =   0.0010000
        k(  200) = (   0.1000000   1.0969655   0.5544603), wk =   0.0010000
        k(  201) = (   0.2000000   0.1154701   0.0000000), wk =   0.0010000
        k(  202) = (   0.2000000   0.1154701   0.0616067), wk =   0.0010000
        k(  203) = (   0.2000000   0.1154701   0.1232134), wk =   0.0010000
        k(  204) = (   0.2000000   0.1154701   0.1848201), wk =   0.0010000
        k(  205) = (   0.2000000   0.1154701   0.2464268), wk =   0.0010000
        k(  206) = (   0.2000000   0.1154701   0.3080335), wk =   0.0010000
        k(  207) = (   0.2000000   0.1154701   0.3696402), wk =   0.0010000
        k(  208) = (   0.2000000   0.1154701   0.4312469), wk =   0.0010000
        k(  209) = (   0.2000000   0.1154701   0.4928536), wk =   0.0010000
        k(  210) = (   0.2000000   0.1154701   0.5544603), wk =   0.0010000
        k(  211) = (   0.2000000   0.2309401   0.0000000), wk =   0.0010000
        k(  212) = (   0.2000000   0.2309401   0.0616067), wk =   0.0010000
        k(  213) = (   0.2000000   0.2309401   0.1232134), wk =   0.0010000
        k(  214) = (   0.2000000   0.2309401   0.1848201), wk =   0.0010000
        k(  215) = (   0.2000000   0.2309401   0.2464268), wk =   0.0010000
        k(  216) = (   0.2000000   0.2309401   0.3080335), wk =   0.0010000
        k(  217) = (   0.2000000   0.2309401   0.3696402), wk =   0.0010000
        k(  218) = (   0.2000000   0.2309401   0.4312469), wk =   0.0010000
        k(  219) = (   0.2000000   0.2309401   0.4928536), wk =   0.0010000
        k(  220) = (   0.2000000   0.2309401   0.5544603), wk =   0.0010000
        k(  221) = (   0.2000000   0.3464102   0.0000000), wk =   0.0010000
        k(  222) = (   0.2000000   0.3464102   0.0616067), wk =   0.0010000
        k(  223) = (   0.2000000   0.3464102   0.1232134), wk =   0.0010000
        k(  224) = (   0.2000000   0.3464102   0.1848201), wk =   0.0010000
        k(  225) = (   0.2000000   0.3464102   0.2464268), wk =   0.0010000
        k(  226) = (   0.2000000   0.3464102   0.3080335), wk =   0.0010000
        k(  227) = (   0.2000000   0.3464102   0.3696402), wk =   0.0010000
        k(  228) = (   0.2000000   0.3464102   0.4312469), wk =   0.0010000
        k(  229) = (   0.2000000   0.3464102   0.4928536), wk =   0.0010000
        k(  230) = (   0.2000000   0.3464102   0.5544603), wk =   0.0010000
        k(  231) = (   0.2000000   0.4618802   0.0000000), wk =   0.0010000
        k(  232) = (   0.2000000   0.4618802   0.0616067), wk =   0.0010000
        k(  233) = (   0.2000000   0.4618802   0.1232134), wk =   0.0010000
        k(  234) = (   0.2000000   0.4618802   0.1848201), wk =   0.0010000
        k(  235) = (   0.2000000   0.4618802   0.2464268), wk =   0.0010000
        k(  236) = (   0.2000000   0.4618802   0.3080335), wk =   0.0010000
        k(  237) = (   0.2000000   0.4618802   0.3696402), wk =   0.0010000
        k(  238) = (   0.2000000   0.4618802   0.4312469), wk =   0.0010000
        k(  239) = (   0.2000000   0.4618802   0.4928536), wk =   0.0010000
        k(  240) = (   0.2000000   0.4618802   0.5544603), wk =   0.0010000
        k(  241) = (   0.2000000   0.5773503   0.0000000), wk =   0.0010000
        k(  242) = (   0.2000000   0.5773503   0.0616067), wk =   0.0010000
        k(  243) = (   0.2000000   0.5773503   0.1232134), wk =   0.0010000
        k(  244) = (   0.2000000   0.5773503   0.1848201), wk =   0.0010000
        k(  245) = (   0.2000000   0.5773503   0.2464268), wk =   0.0010000
        k(  246) = (   0.2000000   0.5773503   0.3080335), wk =   0.0010000
        k(  247) = (   0.2000000   0.5773503   0.3696402), wk =   0.0010000
        k(  248) = (   0.2000000   0.5773503   0.4312469), wk =   0.0010000
        k(  249) = (   0.2000000   0.5773503   0.4928536), wk =   0.0010000
        k(  250) = (   0.2000000   0.5773503   0.5544603), wk =   0.0010000
        k(  251) = (   0.2000000   0.6928203   0.0000000), wk =   0.0010000
        k(  252) = (   0.2000000   0.6928203   0.0616067), wk =   0.0010000
        k(  253) = (   0.2000000   0.6928203   0.1232134), wk =   0.0010000
        k(  254) = (   0.2000000   0.6928203   0.1848201), wk =   0.0010000
        k(  255) = (   0.2000000   0.6928203   0.2464268), wk =   0.0010000
        k(  256) = (   0.2000000   0.6928203   0.3080335), wk =   0.0010000
        k(  257) = (   0.2000000   0.6928203   0.3696402), wk =   0.0010000
        k(  258) = (   0.2000000   0.6928203   0.4312469), wk =   0.0010000
        k(  259) = (   0.2000000   0.6928203   0.4928536), wk =   0.0010000
        k(  260) = (   0.2000000   0.6928203   0.5544603), wk =   0.0010000
        k(  261) = (   0.2000000   0.8082904   0.0000000), wk =   0.0010000
        k(  262) = (   0.2000000   0.8082904   0.0616067), wk =   0.0010000
        k(  263) = (   0.2000000   0.8082904   0.1232134), wk =   0.0010000
        k(  264) = (   0.2000000   0.8082904   0.1848201), wk =   0.0010000
        k(  265) = (   0.2000000   0.8082904   0.2464268), wk =   0.0010000
        k(  266) = (   0.2000000   0.8082904   0.3080335), wk =   0.0010000
        k(  267) = (   0.2000000   0.8082904   0.3696402), wk =   0.0010000
        k(  268) = (   0.2000000   0.8082904   0.4312469), wk =   0.0010000
        k(  269) = (   0.2000000   0.8082904   0.4928536), wk =   0.0010000
        k(  270) = (   0.2000000   0.8082904   0.5544603), wk =   0.0010000
        k(  271) = (   0.2000000   0.9237604   0.0000000), wk =   0.0010000
        k(  272) = (   0.2000000   0.9237604   0.0616067), wk =   0.0010000
        k(  273) = (   0.2000000   0.9237604   0.1232134), wk =   0.0010000
        k(  274) = (   0.2000000   0.9237604   0.1848201), wk =   0.0010000
        k(  275) = (   0.2000000   0.9237604   0.2464268), wk =   0.0010000
        k(  276) = (   0.2000000   0.9237604   0.3080335), wk =   0.0010000
        k(  277) = (   0.2000000   0.9237604   0.3696402), wk =   0.0010000
        k(  278) = (   0.2000000   0.9237604   0.4312469), wk =   0.0010000
        k(  279) = (   0.2000000   0.9237604   0.4928536), wk =   0.0010000
        k(  280) = (   0.2000000   0.9237604   0.5544603), wk =   0.0010000
        k(  281) = (   0.2000000   1.0392305   0.0000000), wk =   0.0010000
        k(  282) = (   0.2000000   1.0392305   0.0616067), wk =   0.0010000
        k(  283) = (   0.2000000   1.0392305   0.1232134), wk =   0.0010000
        k(  284) = (   0.2000000   1.0392305   0.1848201), wk =   0.0010000
        k(  285) = (   0.2000000   1.0392305   0.2464268), wk =   0.0010000
        k(  286) = (   0.2000000   1.0392305   0.3080335), wk =   0.0010000
        k(  287) = (   0.2000000   1.0392305   0.3696402), wk =   0.0010000
        k(  288) = (   0.2000000   1.0392305   0.4312469), wk =   0.0010000
        k(  289) = (   0.2000000   1.0392305   0.4928536), wk =   0.0010000
        k(  290) = (   0.2000000   1.0392305   0.5544603), wk =   0.0010000
        k(  291) = (   0.2000000   1.1547005   0.0000000), wk =   0.0010000
        k(  292) = (   0.2000000   1.1547005   0.0616067), wk =   0.0010000
        k(  293) = (   0.2000000   1.1547005   0.1232134), wk =   0.0010000
        k(  294) = (   0.2000000   1.1547005   0.1848201), wk =   0.0010000
        k(  295) = (   0.2000000   1.1547005   0.2464268), wk =   0.0010000
        k(  296) = (   0.2000000   1.1547005   0.3080335), wk =   0.0010000
        k(  297) = (   0.2000000   1.1547005   0.3696402), wk =   0.0010000
        k(  298) = (   0.2000000   1.1547005   0.4312469), wk =   0.0010000
        k(  299) = (   0.2000000   1.1547005   0.4928536), wk =   0.0010000
        k(  300) = (   0.2000000   1.1547005   0.5544603), wk =   0.0010000
        k(  301) = (   0.3000000   0.1732051   0.0000000), wk =   0.0010000
        k(  302) = (   0.3000000   0.1732051   0.0616067), wk =   0.0010000
        k(  303) = (   0.3000000   0.1732051   0.1232134), wk =   0.0010000
        k(  304) = (   0.3000000   0.1732051   0.1848201), wk =   0.0010000
        k(  305) = (   0.3000000   0.1732051   0.2464268), wk =   0.0010000
        k(  306) = (   0.3000000   0.1732051   0.3080335), wk =   0.0010000
        k(  307) = (   0.3000000   0.1732051   0.3696402), wk =   0.0010000
        k(  308) = (   0.3000000   0.1732051   0.4312469), wk =   0.0010000
        k(  309) = (   0.3000000   0.1732051   0.4928536), wk =   0.0010000
        k(  310) = (   0.3000000   0.1732051   0.5544603), wk =   0.0010000
        k(  311) = (   0.3000000   0.2886751   0.0000000), wk =   0.0010000
        k(  312) = (   0.3000000   0.2886751   0.0616067), wk =   0.0010000
        k(  313) = (   0.3000000   0.2886751   0.1232134), wk =   0.0010000
        k(  314) = (   0.3000000   0.2886751   0.1848201), wk =   0.0010000
        k(  315) = (   0.3000000   0.2886751   0.2464268), wk =   0.0010000
        k(  316) = (   0.3000000   0.2886751   0.3080335), wk =   0.0010000
        k(  317) = (   0.3000000   0.2886751   0.3696402), wk =   0.0010000
        k(  318) = (   0.3000000   0.2886751   0.4312469), wk =   0.0010000
        k(  319) = (   0.3000000   0.2886751   0.4928536), wk =   0.0010000
        k(  320) = (   0.3000000   0.2886751   0.5544603), wk =   0.0010000
        k(  321) = (   0.3000000   0.4041452   0.0000000), wk =   0.0010000
        k(  322) = (   0.3000000   0.4041452   0.0616067), wk =   0.0010000
        k(  323) = (   0.3000000   0.4041452   0.1232134), wk =   0.0010000
        k(  324) = (   0.3000000   0.4041452   0.1848201), wk =   0.0010000
        k(  325) = (   0.3000000   0.4041452   0.2464268), wk =   0.0010000
        k(  326) = (   0.3000000   0.4041452   0.3080335), wk =   0.0010000
        k(  327) = (   0.3000000   0.4041452   0.3696402), wk =   0.0010000
        k(  328) = (   0.3000000   0.4041452   0.4312469), wk =   0.0010000
        k(  329) = (   0.3000000   0.4041452   0.4928536), wk =   0.0010000
        k(  330) = (   0.3000000   0.4041452   0.5544603), wk =   0.0010000
        k(  331) = (   0.3000000   0.5196152   0.0000000), wk =   0.0010000
        k(  332) = (   0.3000000   0.5196152   0.0616067), wk =   0.0010000
        k(  333) = (   0.3000000   0.5196152   0.1232134), wk =   0.0010000
        k(  334) = (   0.3000000   0.5196152   0.1848201), wk =   0.0010000
        k(  335) = (   0.3000000   0.5196152   0.2464268), wk =   0.0010000
        k(  336) = (   0.3000000   0.5196152   0.3080335), wk =   0.0010000
        k(  337) = (   0.3000000   0.5196152   0.3696402), wk =   0.0010000
        k(  338) = (   0.3000000   0.5196152   0.4312469), wk =   0.0010000
        k(  339) = (   0.3000000   0.5196152   0.4928536), wk =   0.0010000
        k(  340) = (   0.3000000   0.5196152   0.5544603), wk =   0.0010000
        k(  341) = (   0.3000000   0.6350853   0.0000000), wk =   0.0010000
        k(  342) = (   0.3000000   0.6350853   0.0616067), wk =   0.0010000
        k(  343) = (   0.3000000   0.6350853   0.1232134), wk =   0.0010000
        k(  344) = (   0.3000000   0.6350853   0.1848201), wk =   0.0010000
        k(  345) = (   0.3000000   0.6350853   0.2464268), wk =   0.0010000
        k(  346) = (   0.3000000   0.6350853   0.3080335), wk =   0.0010000
        k(  347) = (   0.3000000   0.6350853   0.3696402), wk =   0.0010000
        k(  348) = (   0.3000000   0.6350853   0.4312469), wk =   0.0010000
        k(  349) = (   0.3000000   0.6350853   0.4928536), wk =   0.0010000
        k(  350) = (   0.3000000   0.6350853   0.5544603), wk =   0.0010000
        k(  351) = (   0.3000000   0.7505553   0.0000000), wk =   0.0010000
        k(  352) = (   0.3000000   0.7505553   0.0616067), wk =   0.0010000
        k(  353) = (   0.3000000   0.7505553   0.1232134), wk =   0.0010000
        k(  354) = (   0.3000000   0.7505553   0.1848201), wk =   0.0010000
        k(  355) = (   0.3000000   0.7505553   0.2464268), wk =   0.0010000
        k(  356) = (   0.3000000   0.7505553   0.3080335), wk =   0.0010000
        k(  357) = (   0.3000000   0.7505553   0.3696402), wk =   0.0010000
        k(  358) = (   0.3000000   0.7505553   0.4312469), wk =   0.0010000
        k(  359) = (   0.3000000   0.7505553   0.4928536), wk =   0.0010000
        k(  360) = (   0.3000000   0.7505553   0.5544603), wk =   0.0010000
        k(  361) = (   0.3000000   0.8660254   0.0000000), wk =   0.0010000
        k(  362) = (   0.3000000   0.8660254   0.0616067), wk =   0.0010000
        k(  363) = (   0.3000000   0.8660254   0.1232134), wk =   0.0010000
        k(  364) = (   0.3000000   0.8660254   0.1848201), wk =   0.0010000
        k(  365) = (   0.3000000   0.8660254   0.2464268), wk =   0.0010000
        k(  366) = (   0.3000000   0.8660254   0.3080335), wk =   0.0010000
        k(  367) = (   0.3000000   0.8660254   0.3696402), wk =   0.0010000
        k(  368) = (   0.3000000   0.8660254   0.4312469), wk =   0.0010000
        k(  369) = (   0.3000000   0.8660254   0.4928536), wk =   0.0010000
        k(  370) = (   0.3000000   0.8660254   0.5544603), wk =   0.0010000
        k(  371) = (   0.3000000   0.9814955   0.0000000), wk =   0.0010000
        k(  372) = (   0.3000000   0.9814955   0.0616067), wk =   0.0010000
        k(  373) = (   0.3000000   0.9814955   0.1232134), wk =   0.0010000
        k(  374) = (   0.3000000   0.9814955   0.1848201), wk =   0.0010000
        k(  375) = (   0.3000000   0.9814955   0.2464268), wk =   0.0010000
        k(  376) = (   0.3000000   0.9814955   0.3080335), wk =   0.0010000
        k(  377) = (   0.3000000   0.9814955   0.3696402), wk =   0.0010000
        k(  378) = (   0.3000000   0.9814955   0.4312469), wk =   0.0010000
        k(  379) = (   0.3000000   0.9814955   0.4928536), wk =   0.0010000
        k(  380) = (   0.3000000   0.9814955   0.5544603), wk =   0.0010000
        k(  381) = (   0.3000000   1.0969655   0.0000000), wk =   0.0010000
        k(  382) = (   0.3000000   1.0969655   0.0616067), wk =   0.0010000
        k(  383) = (   0.3000000   1.0969655   0.1232134), wk =   0.0010000
        k(  384) = (   0.3000000   1.0969655   0.1848201), wk =   0.0010000
        k(  385) = (   0.3000000   1.0969655   0.2464268), wk =   0.0010000
        k(  386) = (   0.3000000   1.0969655   0.3080335), wk =   0.0010000
        k(  387) = (   0.3000000   1.0969655   0.3696402), wk =   0.0010000
        k(  388) = (   0.3000000   1.0969655   0.4312469), wk =   0.0010000
        k(  389) = (   0.3000000   1.0969655   0.4928536), wk =   0.0010000
        k(  390) = (   0.3000000   1.0969655   0.5544603), wk =   0.0010000
        k(  391) = (   0.3000000   1.2124356   0.0000000), wk =   0.0010000
        k(  392) = (   0.3000000   1.2124356   0.0616067), wk =   0.0010000
        k(  393) = (   0.3000000   1.2124356   0.1232134), wk =   0.0010000
        k(  394) = (   0.3000000   1.2124356   0.1848201), wk =   0.0010000
        k(  395) = (   0.3000000   1.2124356   0.2464268), wk =   0.0010000
        k(  396) = (   0.3000000   1.2124356   0.3080335), wk =   0.0010000
        k(  397) = (   0.3000000   1.2124356   0.3696402), wk =   0.0010000
        k(  398) = (   0.3000000   1.2124356   0.4312469), wk =   0.0010000
        k(  399) = (   0.3000000   1.2124356   0.4928536), wk =   0.0010000
        k(  400) = (   0.3000000   1.2124356   0.5544603), wk =   0.0010000
        k(  401) = (   0.4000000   0.2309401   0.0000000), wk =   0.0010000
        k(  402) = (   0.4000000   0.2309401   0.0616067), wk =   0.0010000
        k(  403) = (   0.4000000   0.2309401   0.1232134), wk =   0.0010000
        k(  404) = (   0.4000000   0.2309401   0.1848201), wk =   0.0010000
        k(  405) = (   0.4000000   0.2309401   0.2464268), wk =   0.0010000
        k(  406) = (   0.4000000   0.2309401   0.3080335), wk =   0.0010000
        k(  407) = (   0.4000000   0.2309401   0.3696402), wk =   0.0010000
        k(  408) = (   0.4000000   0.2309401   0.4312469), wk =   0.0010000
        k(  409) = (   0.4000000   0.2309401   0.4928536), wk =   0.0010000
        k(  410) = (   0.4000000   0.2309401   0.5544603), wk =   0.0010000
        k(  411) = (   0.4000000   0.3464102   0.0000000), wk =   0.0010000
        k(  412) = (   0.4000000   0.3464102   0.0616067), wk =   0.0010000
        k(  413) = (   0.4000000   0.3464102   0.1232134), wk =   0.0010000
        k(  414) = (   0.4000000   0.3464102   0.1848201), wk =   0.0010000
        k(  415) = (   0.4000000   0.3464102   0.2464268), wk =   0.0010000
        k(  416) = (   0.4000000   0.3464102   0.3080335), wk =   0.0010000
        k(  417) = (   0.4000000   0.3464102   0.3696402), wk =   0.0010000
        k(  418) = (   0.4000000   0.3464102   0.4312469), wk =   0.0010000
        k(  419) = (   0.4000000   0.3464102   0.4928536), wk =   0.0010000
        k(  420) = (   0.4000000   0.3464102   0.5544603), wk =   0.0010000
        k(  421) = (   0.4000000   0.4618802   0.0000000), wk =   0.0010000
        k(  422) = (   0.4000000   0.4618802   0.0616067), wk =   0.0010000
        k(  423) = (   0.4000000   0.4618802   0.1232134), wk =   0.0010000
        k(  424) = (   0.4000000   0.4618802   0.1848201), wk =   0.0010000
        k(  425) = (   0.4000000   0.4618802   0.2464268), wk =   0.0010000
        k(  426) = (   0.4000000   0.4618802   0.3080335), wk =   0.0010000
        k(  427) = (   0.4000000   0.4618802   0.3696402), wk =   0.0010000
        k(  428) = (   0.4000000   0.4618802   0.4312469), wk =   0.0010000
        k(  429) = (   0.4000000   0.4618802   0.4928536), wk =   0.0010000
        k(  430) = (   0.4000000   0.4618802   0.5544603), wk =   0.0010000
        k(  431) = (   0.4000000   0.5773503   0.0000000), wk =   0.0010000
        k(  432) = (   0.4000000   0.5773503   0.0616067), wk =   0.0010000
        k(  433) = (   0.4000000   0.5773503   0.1232134), wk =   0.0010000
        k(  434) = (   0.4000000   0.5773503   0.1848201), wk =   0.0010000
        k(  435) = (   0.4000000   0.5773503   0.2464268), wk =   0.0010000
        k(  436) = (   0.4000000   0.5773503   0.3080335), wk =   0.0010000
        k(  437) = (   0.4000000   0.5773503   0.3696402), wk =   0.0010000
        k(  438) = (   0.4000000   0.5773503   0.4312469), wk =   0.0010000
        k(  439) = (   0.4000000   0.5773503   0.4928536), wk =   0.0010000
        k(  440) = (   0.4000000   0.5773503   0.5544603), wk =   0.0010000
        k(  441) = (   0.4000000   0.6928203   0.0000000), wk =   0.0010000
        k(  442) = (   0.4000000   0.6928203   0.0616067), wk =   0.0010000
        k(  443) = (   0.4000000   0.6928203   0.1232134), wk =   0.0010000
        k(  444) = (   0.4000000   0.6928203   0.1848201), wk =   0.0010000
        k(  445) = (   0.4000000   0.6928203   0.2464268), wk =   0.0010000
        k(  446) = (   0.4000000   0.6928203   0.3080335), wk =   0.0010000
        k(  447) = (   0.4000000   0.6928203   0.3696402), wk =   0.0010000
        k(  448) = (   0.4000000   0.6928203   0.4312469), wk =   0.0010000
        k(  449) = (   0.4000000   0.6928203   0.4928536), wk =   0.0010000
        k(  450) = (   0.4000000   0.6928203   0.5544603), wk =   0.0010000
        k(  451) = (   0.4000000   0.8082904   0.0000000), wk =   0.0010000
        k(  452) = (   0.4000000   0.8082904   0.0616067), wk =   0.0010000
        k(  453) = (   0.4000000   0.8082904   0.1232134), wk =   0.0010000
        k(  454) = (   0.4000000   0.8082904   0.1848201), wk =   0.0010000
        k(  455) = (   0.4000000   0.8082904   0.2464268), wk =   0.0010000
        k(  456) = (   0.4000000   0.8082904   0.3080335), wk =   0.0010000
        k(  457) = (   0.4000000   0.8082904   0.3696402), wk =   0.0010000
        k(  458) = (   0.4000000   0.8082904   0.4312469), wk =   0.0010000
        k(  459) = (   0.4000000   0.8082904   0.4928536), wk =   0.0010000
        k(  460) = (   0.4000000   0.8082904   0.5544603), wk =   0.0010000
        k(  461) = (   0.4000000   0.9237604   0.0000000), wk =   0.0010000
        k(  462) = (   0.4000000   0.9237604   0.0616067), wk =   0.0010000
        k(  463) = (   0.4000000   0.9237604   0.1232134), wk =   0.0010000
        k(  464) = (   0.4000000   0.9237604   0.1848201), wk =   0.0010000
        k(  465) = (   0.4000000   0.9237604   0.2464268), wk =   0.0010000
        k(  466) = (   0.4000000   0.9237604   0.3080335), wk =   0.0010000
        k(  467) = (   0.4000000   0.9237604   0.3696402), wk =   0.0010000
        k(  468) = (   0.4000000   0.9237604   0.4312469), wk =   0.0010000
        k(  469) = (   0.4000000   0.9237604   0.4928536), wk =   0.0010000
        k(  470) = (   0.4000000   0.9237604   0.5544603), wk =   0.0010000
        k(  471) = (   0.4000000   1.0392305   0.0000000), wk =   0.0010000
        k(  472) = (   0.4000000   1.0392305   0.0616067), wk =   0.0010000
        k(  473) = (   0.4000000   1.0392305   0.1232134), wk =   0.0010000
        k(  474) = (   0.4000000   1.0392305   0.1848201), wk =   0.0010000
        k(  475) = (   0.4000000   1.0392305   0.2464268), wk =   0.0010000
        k(  476) = (   0.4000000   1.0392305   0.3080335), wk =   0.0010000
        k(  477) = (   0.4000000   1.0392305   0.3696402), wk =   0.0010000
        k(  478) = (   0.4000000   1.0392305   0.4312469), wk =   0.0010000
        k(  479) = (   0.4000000   1.0392305   0.4928536), wk =   0.0010000
        k(  480) = (   0.4000000   1.0392305   0.5544603), wk =   0.0010000
        k(  481) = (   0.4000000   1.1547005   0.0000000), wk =   0.0010000
        k(  482) = (   0.4000000   1.1547005   0.0616067), wk =   0.0010000
        k(  483) = (   0.4000000   1.1547005   0.1232134), wk =   0.0010000
        k(  484) = (   0.4000000   1.1547005   0.1848201), wk =   0.0010000
        k(  485) = (   0.4000000   1.1547005   0.2464268), wk =   0.0010000
        k(  486) = (   0.4000000   1.1547005   0.3080335), wk =   0.0010000
        k(  487) = (   0.4000000   1.1547005   0.3696402), wk =   0.0010000
        k(  488) = (   0.4000000   1.1547005   0.4312469), wk =   0.0010000
        k(  489) = (   0.4000000   1.1547005   0.4928536), wk =   0.0010000
        k(  490) = (   0.4000000   1.1547005   0.5544603), wk =   0.0010000
        k(  491) = (   0.4000000   1.2701706   0.0000000), wk =   0.0010000
        k(  492) = (   0.4000000   1.2701706   0.0616067), wk =   0.0010000
        k(  493) = (   0.4000000   1.2701706   0.1232134), wk =   0.0010000
        k(  494) = (   0.4000000   1.2701706   0.1848201), wk =   0.0010000
        k(  495) = (   0.4000000   1.2701706   0.2464268), wk =   0.0010000
        k(  496) = (   0.4000000   1.2701706   0.3080335), wk =   0.0010000
        k(  497) = (   0.4000000   1.2701706   0.3696402), wk =   0.0010000
        k(  498) = (   0.4000000   1.2701706   0.4312469), wk =   0.0010000
        k(  499) = (   0.4000000   1.2701706   0.4928536), wk =   0.0010000
        k(  500) = (   0.4000000   1.2701706   0.5544603), wk =   0.0010000
        k(  501) = (   0.5000000   0.2886751   0.0000000), wk =   0.0010000
        k(  502) = (   0.5000000   0.2886751   0.0616067), wk =   0.0010000
        k(  503) = (   0.5000000   0.2886751   0.1232134), wk =   0.0010000
        k(  504) = (   0.5000000   0.2886751   0.1848201), wk =   0.0010000
        k(  505) = (   0.5000000   0.2886751   0.2464268), wk =   0.0010000
        k(  506) = (   0.5000000   0.2886751   0.3080335), wk =   0.0010000
        k(  507) = (   0.5000000   0.2886751   0.3696402), wk =   0.0010000
        k(  508) = (   0.5000000   0.2886751   0.4312469), wk =   0.0010000
        k(  509) = (   0.5000000   0.2886751   0.4928536), wk =   0.0010000
        k(  510) = (   0.5000000   0.2886751   0.5544603), wk =   0.0010000
        k(  511) = (   0.5000000   0.4041452   0.0000000), wk =   0.0010000
        k(  512) = (   0.5000000   0.4041452   0.0616067), wk =   0.0010000
        k(  513) = (   0.5000000   0.4041452   0.1232134), wk =   0.0010000
        k(  514) = (   0.5000000   0.4041452   0.1848201), wk =   0.0010000
        k(  515) = (   0.5000000   0.4041452   0.2464268), wk =   0.0010000
        k(  516) = (   0.5000000   0.4041452   0.3080335), wk =   0.0010000
        k(  517) = (   0.5000000   0.4041452   0.3696402), wk =   0.0010000
        k(  518) = (   0.5000000   0.4041452   0.4312469), wk =   0.0010000
        k(  519) = (   0.5000000   0.4041452   0.4928536), wk =   0.0010000
        k(  520) = (   0.5000000   0.4041452   0.5544603), wk =   0.0010000
        k(  521) = (   0.5000000   0.5196152   0.0000000), wk =   0.0010000
        k(  522) = (   0.5000000   0.5196152   0.0616067), wk =   0.0010000
        k(  523) = (   0.5000000   0.5196152   0.1232134), wk =   0.0010000
        k(  524) = (   0.5000000   0.5196152   0.1848201), wk =   0.0010000
        k(  525) = (   0.5000000   0.5196152   0.2464268), wk =   0.0010000
        k(  526) = (   0.5000000   0.5196152   0.3080335), wk =   0.0010000
        k(  527) = (   0.5000000   0.5196152   0.3696402), wk =   0.0010000
        k(  528) = (   0.5000000   0.5196152   0.4312469), wk =   0.0010000
        k(  529) = (   0.5000000   0.5196152   0.4928536), wk =   0.0010000
        k(  530) = (   0.5000000   0.5196152   0.5544603), wk =   0.0010000
        k(  531) = (   0.5000000   0.6350853   0.0000000), wk =   0.0010000
        k(  532) = (   0.5000000   0.6350853   0.0616067), wk =   0.0010000
        k(  533) = (   0.5000000   0.6350853   0.1232134), wk =   0.0010000
        k(  534) = (   0.5000000   0.6350853   0.1848201), wk =   0.0010000
        k(  535) = (   0.5000000   0.6350853   0.2464268), wk =   0.0010000
        k(  536) = (   0.5000000   0.6350853   0.3080335), wk =   0.0010000
        k(  537) = (   0.5000000   0.6350853   0.3696402), wk =   0.0010000
        k(  538) = (   0.5000000   0.6350853   0.4312469), wk =   0.0010000
        k(  539) = (   0.5000000   0.6350853   0.4928536), wk =   0.0010000
        k(  540) = (   0.5000000   0.6350853   0.5544603), wk =   0.0010000
        k(  541) = (   0.5000000   0.7505553   0.0000000), wk =   0.0010000
        k(  542) = (   0.5000000   0.7505553   0.0616067), wk =   0.0010000
        k(  543) = (   0.5000000   0.7505553   0.1232134), wk =   0.0010000
        k(  544) = (   0.5000000   0.7505553   0.1848201), wk =   0.0010000
        k(  545) = (   0.5000000   0.7505553   0.2464268), wk =   0.0010000
        k(  546) = (   0.5000000   0.7505553   0.3080335), wk =   0.0010000
        k(  547) = (   0.5000000   0.7505553   0.3696402), wk =   0.0010000
        k(  548) = (   0.5000000   0.7505553   0.4312469), wk =   0.0010000
        k(  549) = (   0.5000000   0.7505553   0.4928536), wk =   0.0010000
        k(  550) = (   0.5000000   0.7505553   0.5544603), wk =   0.0010000
        k(  551) = (   0.5000000   0.8660254   0.0000000), wk =   0.0010000
        k(  552) = (   0.5000000   0.8660254   0.0616067), wk =   0.0010000
        k(  553) = (   0.5000000   0.8660254   0.1232134), wk =   0.0010000
        k(  554) = (   0.5000000   0.8660254   0.1848201), wk =   0.0010000
        k(  555) = (   0.5000000   0.8660254   0.2464268), wk =   0.0010000
        k(  556) = (   0.5000000   0.8660254   0.3080335), wk =   0.0010000
        k(  557) = (   0.5000000   0.8660254   0.3696402), wk =   0.0010000
        k(  558) = (   0.5000000   0.8660254   0.4312469), wk =   0.0010000
        k(  559) = (   0.5000000   0.8660254   0.4928536), wk =   0.0010000
        k(  560) = (   0.5000000   0.8660254   0.5544603), wk =   0.0010000
        k(  561) = (   0.5000000   0.9814955   0.0000000), wk =   0.0010000
        k(  562) = (   0.5000000   0.9814955   0.0616067), wk =   0.0010000
        k(  563) = (   0.5000000   0.9814955   0.1232134), wk =   0.0010000
        k(  564) = (   0.5000000   0.9814955   0.1848201), wk =   0.0010000
        k(  565) = (   0.5000000   0.9814955   0.2464268), wk =   0.0010000
        k(  566) = (   0.5000000   0.9814955   0.3080335), wk =   0.0010000
        k(  567) = (   0.5000000   0.9814955   0.3696402), wk =   0.0010000
        k(  568) = (   0.5000000   0.9814955   0.4312469), wk =   0.0010000
        k(  569) = (   0.5000000   0.9814955   0.4928536), wk =   0.0010000
        k(  570) = (   0.5000000   0.9814955   0.5544603), wk =   0.0010000
        k(  571) = (   0.5000000   1.0969655   0.0000000), wk =   0.0010000
        k(  572) = (   0.5000000   1.0969655   0.0616067), wk =   0.0010000
        k(  573) = (   0.5000000   1.0969655   0.1232134), wk =   0.0010000
        k(  574) = (   0.5000000   1.0969655   0.1848201), wk =   0.0010000
        k(  575) = (   0.5000000   1.0969655   0.2464268), wk =   0.0010000
        k(  576) = (   0.5000000   1.0969655   0.3080335), wk =   0.0010000
        k(  577) = (   0.5000000   1.0969655   0.3696402), wk =   0.0010000
        k(  578) = (   0.5000000   1.0969655   0.4312469), wk =   0.0010000
        k(  579) = (   0.5000000   1.0969655   0.4928536), wk =   0.0010000
        k(  580) = (   0.5000000   1.0969655   0.5544603), wk =   0.0010000
        k(  581) = (   0.5000000   1.2124356   0.0000000), wk =   0.0010000
        k(  582) = (   0.5000000   1.2124356   0.0616067), wk =   0.0010000
        k(  583) = (   0.5000000   1.2124356   0.1232134), wk =   0.0010000
        k(  584) = (   0.5000000   1.2124356   0.1848201), wk =   0.0010000
        k(  585) = (   0.5000000   1.2124356   0.2464268), wk =   0.0010000
        k(  586) = (   0.5000000   1.2124356   0.3080335), wk =   0.0010000
        k(  587) = (   0.5000000   1.2124356   0.3696402), wk =   0.0010000
        k(  588) = (   0.5000000   1.2124356   0.4312469), wk =   0.0010000
        k(  589) = (   0.5000000   1.2124356   0.4928536), wk =   0.0010000
        k(  590) = (   0.5000000   1.2124356   0.5544603), wk =   0.0010000
        k(  591) = (   0.5000000   1.3279056   0.0000000), wk =   0.0010000
        k(  592) = (   0.5000000   1.3279056   0.0616067), wk =   0.0010000
        k(  593) = (   0.5000000   1.3279056   0.1232134), wk =   0.0010000
        k(  594) = (   0.5000000   1.3279056   0.1848201), wk =   0.0010000
        k(  595) = (   0.5000000   1.3279056   0.2464268), wk =   0.0010000
        k(  596) = (   0.5000000   1.3279056   0.3080335), wk =   0.0010000
        k(  597) = (   0.5000000   1.3279056   0.3696402), wk =   0.0010000
        k(  598) = (   0.5000000   1.3279056   0.4312469), wk =   0.0010000
        k(  599) = (   0.5000000   1.3279056   0.4928536), wk =   0.0010000
        k(  600) = (   0.5000000   1.3279056   0.5544603), wk =   0.0010000
        k(  601) = (   0.6000000   0.3464102   0.0000000), wk =   0.0010000
        k(  602) = (   0.6000000   0.3464102   0.0616067), wk =   0.0010000
        k(  603) = (   0.6000000   0.3464102   0.1232134), wk =   0.0010000
        k(  604) = (   0.6000000   0.3464102   0.1848201), wk =   0.0010000
        k(  605) = (   0.6000000   0.3464102   0.2464268), wk =   0.0010000
        k(  606) = (   0.6000000   0.3464102   0.3080335), wk =   0.0010000
        k(  607) = (   0.6000000   0.3464102   0.3696402), wk =   0.0010000
        k(  608) = (   0.6000000   0.3464102   0.4312469), wk =   0.0010000
        k(  609) = (   0.6000000   0.3464102   0.4928536), wk =   0.0010000
        k(  610) = (   0.6000000   0.3464102   0.5544603), wk =   0.0010000
        k(  611) = (   0.6000000   0.4618802   0.0000000), wk =   0.0010000
        k(  612) = (   0.6000000   0.4618802   0.0616067), wk =   0.0010000
        k(  613) = (   0.6000000   0.4618802   0.1232134), wk =   0.0010000
        k(  614) = (   0.6000000   0.4618802   0.1848201), wk =   0.0010000
        k(  615) = (   0.6000000   0.4618802   0.2464268), wk =   0.0010000
        k(  616) = (   0.6000000   0.4618802   0.3080335), wk =   0.0010000
        k(  617) = (   0.6000000   0.4618802   0.3696402), wk =   0.0010000
        k(  618) = (   0.6000000   0.4618802   0.4312469), wk =   0.0010000
        k(  619) = (   0.6000000   0.4618802   0.4928536), wk =   0.0010000
        k(  620) = (   0.6000000   0.4618802   0.5544603), wk =   0.0010000
        k(  621) = (   0.6000000   0.5773503   0.0000000), wk =   0.0010000
        k(  622) = (   0.6000000   0.5773503   0.0616067), wk =   0.0010000
        k(  623) = (   0.6000000   0.5773503   0.1232134), wk =   0.0010000
        k(  624) = (   0.6000000   0.5773503   0.1848201), wk =   0.0010000
        k(  625) = (   0.6000000   0.5773503   0.2464268), wk =   0.0010000
        k(  626) = (   0.6000000   0.5773503   0.3080335), wk =   0.0010000
        k(  627) = (   0.6000000   0.5773503   0.3696402), wk =   0.0010000
        k(  628) = (   0.6000000   0.5773503   0.4312469), wk =   0.0010000
        k(  629) = (   0.6000000   0.5773503   0.4928536), wk =   0.0010000
        k(  630) = (   0.6000000   0.5773503   0.5544603), wk =   0.0010000
        k(  631) = (   0.6000000   0.6928203   0.0000000), wk =   0.0010000
        k(  632) = (   0.6000000   0.6928203   0.0616067), wk =   0.0010000
        k(  633) = (   0.6000000   0.6928203   0.1232134), wk =   0.0010000
        k(  634) = (   0.6000000   0.6928203   0.1848201), wk =   0.0010000
        k(  635) = (   0.6000000   0.6928203   0.2464268), wk =   0.0010000
        k(  636) = (   0.6000000   0.6928203   0.3080335), wk =   0.0010000
        k(  637) = (   0.6000000   0.6928203   0.3696402), wk =   0.0010000
        k(  638) = (   0.6000000   0.6928203   0.4312469), wk =   0.0010000
        k(  639) = (   0.6000000   0.6928203   0.4928536), wk =   0.0010000
        k(  640) = (   0.6000000   0.6928203   0.5544603), wk =   0.0010000
        k(  641) = (   0.6000000   0.8082904   0.0000000), wk =   0.0010000
        k(  642) = (   0.6000000   0.8082904   0.0616067), wk =   0.0010000
        k(  643) = (   0.6000000   0.8082904   0.1232134), wk =   0.0010000
        k(  644) = (   0.6000000   0.8082904   0.1848201), wk =   0.0010000
        k(  645) = (   0.6000000   0.8082904   0.2464268), wk =   0.0010000
        k(  646) = (   0.6000000   0.8082904   0.3080335), wk =   0.0010000
        k(  647) = (   0.6000000   0.8082904   0.3696402), wk =   0.0010000
        k(  648) = (   0.6000000   0.8082904   0.4312469), wk =   0.0010000
        k(  649) = (   0.6000000   0.8082904   0.4928536), wk =   0.0010000
        k(  650) = (   0.6000000   0.8082904   0.5544603), wk =   0.0010000
        k(  651) = (   0.6000000   0.9237604   0.0000000), wk =   0.0010000
        k(  652) = (   0.6000000   0.9237604   0.0616067), wk =   0.0010000
        k(  653) = (   0.6000000   0.9237604   0.1232134), wk =   0.0010000
        k(  654) = (   0.6000000   0.9237604   0.1848201), wk =   0.0010000
        k(  655) = (   0.6000000   0.9237604   0.2464268), wk =   0.0010000
        k(  656) = (   0.6000000   0.9237604   0.3080335), wk =   0.0010000
        k(  657) = (   0.6000000   0.9237604   0.3696402), wk =   0.0010000
        k(  658) = (   0.6000000   0.9237604   0.4312469), wk =   0.0010000
        k(  659) = (   0.6000000   0.9237604   0.4928536), wk =   0.0010000
        k(  660) = (   0.6000000   0.9237604   0.5544603), wk =   0.0010000
        k(  661) = (   0.6000000   1.0392305   0.0000000), wk =   0.0010000
        k(  662) = (   0.6000000   1.0392305   0.0616067), wk =   0.0010000
        k(  663) = (   0.6000000   1.0392305   0.1232134), wk =   0.0010000
        k(  664) = (   0.6000000   1.0392305   0.1848201), wk =   0.0010000
        k(  665) = (   0.6000000   1.0392305   0.2464268), wk =   0.0010000
        k(  666) = (   0.6000000   1.0392305   0.3080335), wk =   0.0010000
        k(  667) = (   0.6000000   1.0392305   0.3696402), wk =   0.0010000
        k(  668) = (   0.6000000   1.0392305   0.4312469), wk =   0.0010000
        k(  669) = (   0.6000000   1.0392305   0.4928536), wk =   0.0010000
        k(  670) = (   0.6000000   1.0392305   0.5544603), wk =   0.0010000
        k(  671) = (   0.6000000   1.1547005   0.0000000), wk =   0.0010000
        k(  672) = (   0.6000000   1.1547005   0.0616067), wk =   0.0010000
        k(  673) = (   0.6000000   1.1547005   0.1232134), wk =   0.0010000
        k(  674) = (   0.6000000   1.1547005   0.1848201), wk =   0.0010000
        k(  675) = (   0.6000000   1.1547005   0.2464268), wk =   0.0010000
        k(  676) = (   0.6000000   1.1547005   0.3080335), wk =   0.0010000
        k(  677) = (   0.6000000   1.1547005   0.3696402), wk =   0.0010000
        k(  678) = (   0.6000000   1.1547005   0.4312469), wk =   0.0010000
        k(  679) = (   0.6000000   1.1547005   0.4928536), wk =   0.0010000
        k(  680) = (   0.6000000   1.1547005   0.5544603), wk =   0.0010000
        k(  681) = (   0.6000000   1.2701706   0.0000000), wk =   0.0010000
        k(  682) = (   0.6000000   1.2701706   0.0616067), wk =   0.0010000
        k(  683) = (   0.6000000   1.2701706   0.1232134), wk =   0.0010000
        k(  684) = (   0.6000000   1.2701706   0.1848201), wk =   0.0010000
        k(  685) = (   0.6000000   1.2701706   0.2464268), wk =   0.0010000
        k(  686) = (   0.6000000   1.2701706   0.3080335), wk =   0.0010000
        k(  687) = (   0.6000000   1.2701706   0.3696402), wk =   0.0010000
        k(  688) = (   0.6000000   1.2701706   0.4312469), wk =   0.0010000
        k(  689) = (   0.6000000   1.2701706   0.4928536), wk =   0.0010000
        k(  690) = (   0.6000000   1.2701706   0.5544603), wk =   0.0010000
        k(  691) = (   0.6000000   1.3856406   0.0000000), wk =   0.0010000
        k(  692) = (   0.6000000   1.3856406   0.0616067), wk =   0.0010000
        k(  693) = (   0.6000000   1.3856406   0.1232134), wk =   0.0010000
        k(  694) = (   0.6000000   1.3856406   0.1848201), wk =   0.0010000
        k(  695) = (   0.6000000   1.3856406   0.2464268), wk =   0.0010000
        k(  696) = (   0.6000000   1.3856406   0.3080335), wk =   0.0010000
        k(  697) = (   0.6000000   1.3856406   0.3696402), wk =   0.0010000
        k(  698) = (   0.6000000   1.3856406   0.4312469), wk =   0.0010000
        k(  699) = (   0.6000000   1.3856406   0.4928536), wk =   0.0010000
        k(  700) = (   0.6000000   1.3856406   0.5544603), wk =   0.0010000
        k(  701) = (   0.7000000   0.4041452   0.0000000), wk =   0.0010000
        k(  702) = (   0.7000000   0.4041452   0.0616067), wk =   0.0010000
        k(  703) = (   0.7000000   0.4041452   0.1232134), wk =   0.0010000
        k(  704) = (   0.7000000   0.4041452   0.1848201), wk =   0.0010000
        k(  705) = (   0.7000000   0.4041452   0.2464268), wk =   0.0010000
        k(  706) = (   0.7000000   0.4041452   0.3080335), wk =   0.0010000
        k(  707) = (   0.7000000   0.4041452   0.3696402), wk =   0.0010000
        k(  708) = (   0.7000000   0.4041452   0.4312469), wk =   0.0010000
        k(  709) = (   0.7000000   0.4041452   0.4928536), wk =   0.0010000
        k(  710) = (   0.7000000   0.4041452   0.5544603), wk =   0.0010000
        k(  711) = (   0.7000000   0.5196152   0.0000000), wk =   0.0010000
        k(  712) = (   0.7000000   0.5196152   0.0616067), wk =   0.0010000
        k(  713) = (   0.7000000   0.5196152   0.1232134), wk =   0.0010000
        k(  714) = (   0.7000000   0.5196152   0.1848201), wk =   0.0010000
        k(  715) = (   0.7000000   0.5196152   0.2464268), wk =   0.0010000
        k(  716) = (   0.7000000   0.5196152   0.3080335), wk =   0.0010000
        k(  717) = (   0.7000000   0.5196152   0.3696402), wk =   0.0010000
        k(  718) = (   0.7000000   0.5196152   0.4312469), wk =   0.0010000
        k(  719) = (   0.7000000   0.5196152   0.4928536), wk =   0.0010000
        k(  720) = (   0.7000000   0.5196152   0.5544603), wk =   0.0010000
        k(  721) = (   0.7000000   0.6350853   0.0000000), wk =   0.0010000
        k(  722) = (   0.7000000   0.6350853   0.0616067), wk =   0.0010000
        k(  723) = (   0.7000000   0.6350853   0.1232134), wk =   0.0010000
        k(  724) = (   0.7000000   0.6350853   0.1848201), wk =   0.0010000
        k(  725) = (   0.7000000   0.6350853   0.2464268), wk =   0.0010000
        k(  726) = (   0.7000000   0.6350853   0.3080335), wk =   0.0010000
        k(  727) = (   0.7000000   0.6350853   0.3696402), wk =   0.0010000
        k(  728) = (   0.7000000   0.6350853   0.4312469), wk =   0.0010000
        k(  729) = (   0.7000000   0.6350853   0.4928536), wk =   0.0010000
        k(  730) = (   0.7000000   0.6350853   0.5544603), wk =   0.0010000
        k(  731) = (   0.7000000   0.7505553   0.0000000), wk =   0.0010000
        k(  732) = (   0.7000000   0.7505553   0.0616067), wk =   0.0010000
        k(  733) = (   0.7000000   0.7505553   0.1232134), wk =   0.0010000
        k(  734) = (   0.7000000   0.7505553   0.1848201), wk =   0.0010000
        k(  735) = (   0.7000000   0.7505553   0.2464268), wk =   0.0010000
        k(  736) = (   0.7000000   0.7505553   0.3080335), wk =   0.0010000
        k(  737) = (   0.7000000   0.7505553   0.3696402), wk =   0.0010000
        k(  738) = (   0.7000000   0.7505553   0.4312469), wk =   0.0010000
        k(  739) = (   0.7000000   0.7505553   0.4928536), wk =   0.0010000
        k(  740) = (   0.7000000   0.7505553   0.5544603), wk =   0.0010000
        k(  741) = (   0.7000000   0.8660254   0.0000000), wk =   0.0010000
        k(  742) = (   0.7000000   0.8660254   0.0616067), wk =   0.0010000
        k(  743) = (   0.7000000   0.8660254   0.1232134), wk =   0.0010000
        k(  744) = (   0.7000000   0.8660254   0.1848201), wk =   0.0010000
        k(  745) = (   0.7000000   0.8660254   0.2464268), wk =   0.0010000
        k(  746) = (   0.7000000   0.8660254   0.3080335), wk =   0.0010000
        k(  747) = (   0.7000000   0.8660254   0.3696402), wk =   0.0010000
        k(  748) = (   0.7000000   0.8660254   0.4312469), wk =   0.0010000
        k(  749) = (   0.7000000   0.8660254   0.4928536), wk =   0.0010000
        k(  750) = (   0.7000000   0.8660254   0.5544603), wk =   0.0010000
        k(  751) = (   0.7000000   0.9814955   0.0000000), wk =   0.0010000
        k(  752) = (   0.7000000   0.9814955   0.0616067), wk =   0.0010000
        k(  753) = (   0.7000000   0.9814955   0.1232134), wk =   0.0010000
        k(  754) = (   0.7000000   0.9814955   0.1848201), wk =   0.0010000
        k(  755) = (   0.7000000   0.9814955   0.2464268), wk =   0.0010000
        k(  756) = (   0.7000000   0.9814955   0.3080335), wk =   0.0010000
        k(  757) = (   0.7000000   0.9814955   0.3696402), wk =   0.0010000
        k(  758) = (   0.7000000   0.9814955   0.4312469), wk =   0.0010000
        k(  759) = (   0.7000000   0.9814955   0.4928536), wk =   0.0010000
        k(  760) = (   0.7000000   0.9814955   0.5544603), wk =   0.0010000
        k(  761) = (   0.7000000   1.0969655   0.0000000), wk =   0.0010000
        k(  762) = (   0.7000000   1.0969655   0.0616067), wk =   0.0010000
        k(  763) = (   0.7000000   1.0969655   0.1232134), wk =   0.0010000
        k(  764) = (   0.7000000   1.0969655   0.1848201), wk =   0.0010000
        k(  765) = (   0.7000000   1.0969655   0.2464268), wk =   0.0010000
        k(  766) = (   0.7000000   1.0969655   0.3080335), wk =   0.0010000
        k(  767) = (   0.7000000   1.0969655   0.3696402), wk =   0.0010000
        k(  768) = (   0.7000000   1.0969655   0.4312469), wk =   0.0010000
        k(  769) = (   0.7000000   1.0969655   0.4928536), wk =   0.0010000
        k(  770) = (   0.7000000   1.0969655   0.5544603), wk =   0.0010000
        k(  771) = (   0.7000000   1.2124356   0.0000000), wk =   0.0010000
        k(  772) = (   0.7000000   1.2124356   0.0616067), wk =   0.0010000
        k(  773) = (   0.7000000   1.2124356   0.1232134), wk =   0.0010000
        k(  774) = (   0.7000000   1.2124356   0.1848201), wk =   0.0010000
        k(  775) = (   0.7000000   1.2124356   0.2464268), wk =   0.0010000
        k(  776) = (   0.7000000   1.2124356   0.3080335), wk =   0.0010000
        k(  777) = (   0.7000000   1.2124356   0.3696402), wk =   0.0010000
        k(  778) = (   0.7000000   1.2124356   0.4312469), wk =   0.0010000
        k(  779) = (   0.7000000   1.2124356   0.4928536), wk =   0.0010000
        k(  780) = (   0.7000000   1.2124356   0.5544603), wk =   0.0010000
        k(  781) = (   0.7000000   1.3279056   0.0000000), wk =   0.0010000
        k(  782) = (   0.7000000   1.3279056   0.0616067), wk =   0.0010000
        k(  783) = (   0.7000000   1.3279056   0.1232134), wk =   0.0010000
        k(  784) = (   0.7000000   1.3279056   0.1848201), wk =   0.0010000
        k(  785) = (   0.7000000   1.3279056   0.2464268), wk =   0.0010000
        k(  786) = (   0.7000000   1.3279056   0.3080335), wk =   0.0010000
        k(  787) = (   0.7000000   1.3279056   0.3696402), wk =   0.0010000
        k(  788) = (   0.7000000   1.3279056   0.4312469), wk =   0.0010000
        k(  789) = (   0.7000000   1.3279056   0.4928536), wk =   0.0010000
        k(  790) = (   0.7000000   1.3279056   0.5544603), wk =   0.0010000
        k(  791) = (   0.7000000   1.4433757   0.0000000), wk =   0.0010000
        k(  792) = (   0.7000000   1.4433757   0.0616067), wk =   0.0010000
        k(  793) = (   0.7000000   1.4433757   0.1232134), wk =   0.0010000
        k(  794) = (   0.7000000   1.4433757   0.1848201), wk =   0.0010000
        k(  795) = (   0.7000000   1.4433757   0.2464268), wk =   0.0010000
        k(  796) = (   0.7000000   1.4433757   0.3080335), wk =   0.0010000
        k(  797) = (   0.7000000   1.4433757   0.3696402), wk =   0.0010000
        k(  798) = (   0.7000000   1.4433757   0.4312469), wk =   0.0010000
        k(  799) = (   0.7000000   1.4433757   0.4928536), wk =   0.0010000
        k(  800) = (   0.7000000   1.4433757   0.5544603), wk =   0.0010000
        k(  801) = (   0.8000000   0.4618802   0.0000000), wk =   0.0010000
        k(  802) = (   0.8000000   0.4618802   0.0616067), wk =   0.0010000
        k(  803) = (   0.8000000   0.4618802   0.1232134), wk =   0.0010000
        k(  804) = (   0.8000000   0.4618802   0.1848201), wk =   0.0010000
        k(  805) = (   0.8000000   0.4618802   0.2464268), wk =   0.0010000
        k(  806) = (   0.8000000   0.4618802   0.3080335), wk =   0.0010000
        k(  807) = (   0.8000000   0.4618802   0.3696402), wk =   0.0010000
        k(  808) = (   0.8000000   0.4618802   0.4312469), wk =   0.0010000
        k(  809) = (   0.8000000   0.4618802   0.4928536), wk =   0.0010000
        k(  810) = (   0.8000000   0.4618802   0.5544603), wk =   0.0010000
        k(  811) = (   0.8000000   0.5773503   0.0000000), wk =   0.0010000
        k(  812) = (   0.8000000   0.5773503   0.0616067), wk =   0.0010000
        k(  813) = (   0.8000000   0.5773503   0.1232134), wk =   0.0010000
        k(  814) = (   0.8000000   0.5773503   0.1848201), wk =   0.0010000
        k(  815) = (   0.8000000   0.5773503   0.2464268), wk =   0.0010000
        k(  816) = (   0.8000000   0.5773503   0.3080335), wk =   0.0010000
        k(  817) = (   0.8000000   0.5773503   0.3696402), wk =   0.0010000
        k(  818) = (   0.8000000   0.5773503   0.4312469), wk =   0.0010000
        k(  819) = (   0.8000000   0.5773503   0.4928536), wk =   0.0010000
        k(  820) = (   0.8000000   0.5773503   0.5544603), wk =   0.0010000
        k(  821) = (   0.8000000   0.6928203   0.0000000), wk =   0.0010000
        k(  822) = (   0.8000000   0.6928203   0.0616067), wk =   0.0010000
        k(  823) = (   0.8000000   0.6928203   0.1232134), wk =   0.0010000
        k(  824) = (   0.8000000   0.6928203   0.1848201), wk =   0.0010000
        k(  825) = (   0.8000000   0.6928203   0.2464268), wk =   0.0010000
        k(  826) = (   0.8000000   0.6928203   0.3080335), wk =   0.0010000
        k(  827) = (   0.8000000   0.6928203   0.3696402), wk =   0.0010000
        k(  828) = (   0.8000000   0.6928203   0.4312469), wk =   0.0010000
        k(  829) = (   0.8000000   0.6928203   0.4928536), wk =   0.0010000
        k(  830) = (   0.8000000   0.6928203   0.5544603), wk =   0.0010000
        k(  831) = (   0.8000000   0.8082904   0.0000000), wk =   0.0010000
        k(  832) = (   0.8000000   0.8082904   0.0616067), wk =   0.0010000
        k(  833) = (   0.8000000   0.8082904   0.1232134), wk =   0.0010000
        k(  834) = (   0.8000000   0.8082904   0.1848201), wk =   0.0010000
        k(  835) = (   0.8000000   0.8082904   0.2464268), wk =   0.0010000
        k(  836) = (   0.8000000   0.8082904   0.3080335), wk =   0.0010000
        k(  837) = (   0.8000000   0.8082904   0.3696402), wk =   0.0010000
        k(  838) = (   0.8000000   0.8082904   0.4312469), wk =   0.0010000
        k(  839) = (   0.8000000   0.8082904   0.4928536), wk =   0.0010000
        k(  840) = (   0.8000000   0.8082904   0.5544603), wk =   0.0010000
        k(  841) = (   0.8000000   0.9237604   0.0000000), wk =   0.0010000
        k(  842) = (   0.8000000   0.9237604   0.0616067), wk =   0.0010000
        k(  843) = (   0.8000000   0.9237604   0.1232134), wk =   0.0010000
        k(  844) = (   0.8000000   0.9237604   0.1848201), wk =   0.0010000
        k(  845) = (   0.8000000   0.9237604   0.2464268), wk =   0.0010000
        k(  846) = (   0.8000000   0.9237604   0.3080335), wk =   0.0010000
        k(  847) = (   0.8000000   0.9237604   0.3696402), wk =   0.0010000
        k(  848) = (   0.8000000   0.9237604   0.4312469), wk =   0.0010000
        k(  849) = (   0.8000000   0.9237604   0.4928536), wk =   0.0010000
        k(  850) = (   0.8000000   0.9237604   0.5544603), wk =   0.0010000
        k(  851) = (   0.8000000   1.0392305   0.0000000), wk =   0.0010000
        k(  852) = (   0.8000000   1.0392305   0.0616067), wk =   0.0010000
        k(  853) = (   0.8000000   1.0392305   0.1232134), wk =   0.0010000
        k(  854) = (   0.8000000   1.0392305   0.1848201), wk =   0.0010000
        k(  855) = (   0.8000000   1.0392305   0.2464268), wk =   0.0010000
        k(  856) = (   0.8000000   1.0392305   0.3080335), wk =   0.0010000
        k(  857) = (   0.8000000   1.0392305   0.3696402), wk =   0.0010000
        k(  858) = (   0.8000000   1.0392305   0.4312469), wk =   0.0010000
        k(  859) = (   0.8000000   1.0392305   0.4928536), wk =   0.0010000
        k(  860) = (   0.8000000   1.0392305   0.5544603), wk =   0.0010000
        k(  861) = (   0.8000000   1.1547005   0.0000000), wk =   0.0010000
        k(  862) = (   0.8000000   1.1547005   0.0616067), wk =   0.0010000
        k(  863) = (   0.8000000   1.1547005   0.1232134), wk =   0.0010000
        k(  864) = (   0.8000000   1.1547005   0.1848201), wk =   0.0010000
        k(  865) = (   0.8000000   1.1547005   0.2464268), wk =   0.0010000
        k(  866) = (   0.8000000   1.1547005   0.3080335), wk =   0.0010000
        k(  867) = (   0.8000000   1.1547005   0.3696402), wk =   0.0010000
        k(  868) = (   0.8000000   1.1547005   0.4312469), wk =   0.0010000
        k(  869) = (   0.8000000   1.1547005   0.4928536), wk =   0.0010000
        k(  870) = (   0.8000000   1.1547005   0.5544603), wk =   0.0010000
        k(  871) = (   0.8000000   1.2701706   0.0000000), wk =   0.0010000
        k(  872) = (   0.8000000   1.2701706   0.0616067), wk =   0.0010000
        k(  873) = (   0.8000000   1.2701706   0.1232134), wk =   0.0010000
        k(  874) = (   0.8000000   1.2701706   0.1848201), wk =   0.0010000
        k(  875) = (   0.8000000   1.2701706   0.2464268), wk =   0.0010000
        k(  876) = (   0.8000000   1.2701706   0.3080335), wk =   0.0010000
        k(  877) = (   0.8000000   1.2701706   0.3696402), wk =   0.0010000
        k(  878) = (   0.8000000   1.2701706   0.4312469), wk =   0.0010000
        k(  879) = (   0.8000000   1.2701706   0.4928536), wk =   0.0010000
        k(  880) = (   0.8000000   1.2701706   0.5544603), wk =   0.0010000
        k(  881) = (   0.8000000   1.3856406   0.0000000), wk =   0.0010000
        k(  882) = (   0.8000000   1.3856406   0.0616067), wk =   0.0010000
        k(  883) = (   0.8000000   1.3856406   0.1232134), wk =   0.0010000
        k(  884) = (   0.8000000   1.3856406   0.1848201), wk =   0.0010000
        k(  885) = (   0.8000000   1.3856406   0.2464268), wk =   0.0010000
        k(  886) = (   0.8000000   1.3856406   0.3080335), wk =   0.0010000
        k(  887) = (   0.8000000   1.3856406   0.3696402), wk =   0.0010000
        k(  888) = (   0.8000000   1.3856406   0.4312469), wk =   0.0010000
        k(  889) = (   0.8000000   1.3856406   0.4928536), wk =   0.0010000
        k(  890) = (   0.8000000   1.3856406   0.5544603), wk =   0.0010000
        k(  891) = (   0.8000000   1.5011107   0.0000000), wk =   0.0010000
        k(  892) = (   0.8000000   1.5011107   0.0616067), wk =   0.0010000
        k(  893) = (   0.8000000   1.5011107   0.1232134), wk =   0.0010000
        k(  894) = (   0.8000000   1.5011107   0.1848201), wk =   0.0010000
        k(  895) = (   0.8000000   1.5011107   0.2464268), wk =   0.0010000
        k(  896) = (   0.8000000   1.5011107   0.3080335), wk =   0.0010000
        k(  897) = (   0.8000000   1.5011107   0.3696402), wk =   0.0010000
        k(  898) = (   0.8000000   1.5011107   0.4312469), wk =   0.0010000
        k(  899) = (   0.8000000   1.5011107   0.4928536), wk =   0.0010000
        k(  900) = (   0.8000000   1.5011107   0.5544603), wk =   0.0010000
        k(  901) = (   0.9000000   0.5196152   0.0000000), wk =   0.0010000
        k(  902) = (   0.9000000   0.5196152   0.0616067), wk =   0.0010000
        k(  903) = (   0.9000000   0.5196152   0.1232134), wk =   0.0010000
        k(  904) = (   0.9000000   0.5196152   0.1848201), wk =   0.0010000
        k(  905) = (   0.9000000   0.5196152   0.2464268), wk =   0.0010000
        k(  906) = (   0.9000000   0.5196152   0.3080335), wk =   0.0010000
        k(  907) = (   0.9000000   0.5196152   0.3696402), wk =   0.0010000
        k(  908) = (   0.9000000   0.5196152   0.4312469), wk =   0.0010000
        k(  909) = (   0.9000000   0.5196152   0.4928536), wk =   0.0010000
        k(  910) = (   0.9000000   0.5196152   0.5544603), wk =   0.0010000
        k(  911) = (   0.9000000   0.6350853   0.0000000), wk =   0.0010000
        k(  912) = (   0.9000000   0.6350853   0.0616067), wk =   0.0010000
        k(  913) = (   0.9000000   0.6350853   0.1232134), wk =   0.0010000
        k(  914) = (   0.9000000   0.6350853   0.1848201), wk =   0.0010000
        k(  915) = (   0.9000000   0.6350853   0.2464268), wk =   0.0010000
        k(  916) = (   0.9000000   0.6350853   0.3080335), wk =   0.0010000
        k(  917) = (   0.9000000   0.6350853   0.3696402), wk =   0.0010000
        k(  918) = (   0.9000000   0.6350853   0.4312469), wk =   0.0010000
        k(  919) = (   0.9000000   0.6350853   0.4928536), wk =   0.0010000
        k(  920) = (   0.9000000   0.6350853   0.5544603), wk =   0.0010000
        k(  921) = (   0.9000000   0.7505553   0.0000000), wk =   0.0010000
        k(  922) = (   0.9000000   0.7505553   0.0616067), wk =   0.0010000
        k(  923) = (   0.9000000   0.7505553   0.1232134), wk =   0.0010000
        k(  924) = (   0.9000000   0.7505553   0.1848201), wk =   0.0010000
        k(  925) = (   0.9000000   0.7505553   0.2464268), wk =   0.0010000
        k(  926) = (   0.9000000   0.7505553   0.3080335), wk =   0.0010000
        k(  927) = (   0.9000000   0.7505553   0.3696402), wk =   0.0010000
        k(  928) = (   0.9000000   0.7505553   0.4312469), wk =   0.0010000
        k(  929) = (   0.9000000   0.7505553   0.4928536), wk =   0.0010000
        k(  930) = (   0.9000000   0.7505553   0.5544603), wk =   0.0010000
        k(  931) = (   0.9000000   0.8660254   0.0000000), wk =   0.0010000
        k(  932) = (   0.9000000   0.8660254   0.0616067), wk =   0.0010000
        k(  933) = (   0.9000000   0.8660254   0.1232134), wk =   0.0010000
        k(  934) = (   0.9000000   0.8660254   0.1848201), wk =   0.0010000
        k(  935) = (   0.9000000   0.8660254   0.2464268), wk =   0.0010000
        k(  936) = (   0.9000000   0.8660254   0.3080335), wk =   0.0010000
        k(  937) = (   0.9000000   0.8660254   0.3696402), wk =   0.0010000
        k(  938) = (   0.9000000   0.8660254   0.4312469), wk =   0.0010000
        k(  939) = (   0.9000000   0.8660254   0.4928536), wk =   0.0010000
        k(  940) = (   0.9000000   0.8660254   0.5544603), wk =   0.0010000
        k(  941) = (   0.9000000   0.9814955   0.0000000), wk =   0.0010000
        k(  942) = (   0.9000000   0.9814955   0.0616067), wk =   0.0010000
        k(  943) = (   0.9000000   0.9814955   0.1232134), wk =   0.0010000
        k(  944) = (   0.9000000   0.9814955   0.1848201), wk =   0.0010000
        k(  945) = (   0.9000000   0.9814955   0.2464268), wk =   0.0010000
        k(  946) = (   0.9000000   0.9814955   0.3080335), wk =   0.0010000
        k(  947) = (   0.9000000   0.9814955   0.3696402), wk =   0.0010000
        k(  948) = (   0.9000000   0.9814955   0.4312469), wk =   0.0010000
        k(  949) = (   0.9000000   0.9814955   0.4928536), wk =   0.0010000
        k(  950) = (   0.9000000   0.9814955   0.5544603), wk =   0.0010000
        k(  951) = (   0.9000000   1.0969655   0.0000000), wk =   0.0010000
        k(  952) = (   0.9000000   1.0969655   0.0616067), wk =   0.0010000
        k(  953) = (   0.9000000   1.0969655   0.1232134), wk =   0.0010000
        k(  954) = (   0.9000000   1.0969655   0.1848201), wk =   0.0010000
        k(  955) = (   0.9000000   1.0969655   0.2464268), wk =   0.0010000
        k(  956) = (   0.9000000   1.0969655   0.3080335), wk =   0.0010000
        k(  957) = (   0.9000000   1.0969655   0.3696402), wk =   0.0010000
        k(  958) = (   0.9000000   1.0969655   0.4312469), wk =   0.0010000
        k(  959) = (   0.9000000   1.0969655   0.4928536), wk =   0.0010000
        k(  960) = (   0.9000000   1.0969655   0.5544603), wk =   0.0010000
        k(  961) = (   0.9000000   1.2124356   0.0000000), wk =   0.0010000
        k(  962) = (   0.9000000   1.2124356   0.0616067), wk =   0.0010000
        k(  963) = (   0.9000000   1.2124356   0.1232134), wk =   0.0010000
        k(  964) = (   0.9000000   1.2124356   0.1848201), wk =   0.0010000
        k(  965) = (   0.9000000   1.2124356   0.2464268), wk =   0.0010000
        k(  966) = (   0.9000000   1.2124356   0.3080335), wk =   0.0010000
        k(  967) = (   0.9000000   1.2124356   0.3696402), wk =   0.0010000
        k(  968) = (   0.9000000   1.2124356   0.4312469), wk =   0.0010000
        k(  969) = (   0.9000000   1.2124356   0.4928536), wk =   0.0010000
        k(  970) = (   0.9000000   1.2124356   0.5544603), wk =   0.0010000
        k(  971) = (   0.9000000   1.3279056   0.0000000), wk =   0.0010000
        k(  972) = (   0.9000000   1.3279056   0.0616067), wk =   0.0010000
        k(  973) = (   0.9000000   1.3279056   0.1232134), wk =   0.0010000
        k(  974) = (   0.9000000   1.3279056   0.1848201), wk =   0.0010000
        k(  975) = (   0.9000000   1.3279056   0.2464268), wk =   0.0010000
        k(  976) = (   0.9000000   1.3279056   0.3080335), wk =   0.0010000
        k(  977) = (   0.9000000   1.3279056   0.3696402), wk =   0.0010000
        k(  978) = (   0.9000000   1.3279056   0.4312469), wk =   0.0010000
        k(  979) = (   0.9000000   1.3279056   0.4928536), wk =   0.0010000
        k(  980) = (   0.9000000   1.3279056   0.5544603), wk =   0.0010000
        k(  981) = (   0.9000000   1.4433757   0.0000000), wk =   0.0010000
        k(  982) = (   0.9000000   1.4433757   0.0616067), wk =   0.0010000
        k(  983) = (   0.9000000   1.4433757   0.1232134), wk =   0.0010000
        k(  984) = (   0.9000000   1.4433757   0.1848201), wk =   0.0010000
        k(  985) = (   0.9000000   1.4433757   0.2464268), wk =   0.0010000
        k(  986) = (   0.9000000   1.4433757   0.3080335), wk =   0.0010000
        k(  987) = (   0.9000000   1.4433757   0.3696402), wk =   0.0010000
        k(  988) = (   0.9000000   1.4433757   0.4312469), wk =   0.0010000
[...]
     1.0000   1.0000   1.0000   1.0000   1.0000   1.0000   1.0000   1.0000
     1.0000   1.0000   1.0000   1.0000   1.0000   1.0000   1.0765   0.4970
     0.0000   0.0000   0.0000   0.0000   0.0000   0.0000   0.0000   0.0000
     0.0000   0.0000   0.0000   0.0000   0.0000   0.0000   0.0000   0.0000
     0.0000   0.0000   0.0000   0.0000   0.0000   0.0000   0.0000   0.0000
     0.0000   0.0000   0.0000   0.0000   0.0000   0.0000   0.0000   0.0000

          k = 0.9000 1.4434 0.4312 (  2154 PWs)   bands (ev):

   -74.6015 -74.5792 -37.7504 -37.6796 -37.6330 -37.5916 -37.5562 -37.5454
    13.8023  16.1265  17.3278  17.9375  18.4262  18.8120  19.2365  19.7700
    20.2737  20.3162  20.8123  22.2994  31.7990  33.4505  35.8905  36.8993
    39.2615  41.6636  44.2751  46.9155  47.5064  49.2230  52.9407  53.7406
    56.2468  57.8178  59.2280  59.9191  61.1378  63.7278  64.9312  66.2083
    67.7896  69.2188  73.4656  75.0263  76.1733  78.3253  79.3315  80.2417

     occupation numbers 
     1.0000   1.0000   1.0000   1.0000   1.0000   1.0000   1.0000   1.0000
     1.0000   1.0000   1.0000   1.0000   1.0000   1.0004   1.0687   0.2420
     0.0002   0.0001   0.0000   0.0000   0.0000   0.0000   0.0000   0.0000
     0.0000   0.0000   0.0000   0.0000   0.0000   0.0000   0.0000   0.0000
     0.0000   0.0000   0.0000   0.0000   0.0000   0.0000   0.0000   0.0000
     0.0000   0.0000   0.0000   0.0000   0.0000   0.0000   0.0000   0.0000

          k = 0.9000 1.4434 0.4929 (  2147 PWs)   bands (ev):

   -74.6057 -74.5750 -37.7588 -37.6665 -37.6503 -37.5937 -37.5489 -37.5376
    13.4155  16.5648  17.2208  17.8490  18.5897  18.9164  19.1965  19.7527
    20.1555  20.2205  20.8874  23.2317  29.8468  33.0062  35.5198  37.8422
    40.3943  43.0192  44.4468  46.1574  46.8394  49.1398  52.6409  53.9558
    55.4838  57.6337  58.8490  59.8484  62.8080  64.1074  64.6805  66.3837
    67.3295  70.5656  72.4949  74.0881  76.2167  76.4880  79.6872  81.5626

     occupation numbers 
     1.0000   1.0000   1.0000   1.0000   1.0000   1.0000   1.0000   1.0000
     1.0000   1.0000   1.0000   1.0000   1.0000   1.0025   1.0553   0.2766
     0.0017   0.0005   0.0000   0.0000   0.0000   0.0000   0.0000   0.0000
     0.0000   0.0000   0.0000   0.0000   0.0000   0.0000   0.0000   0.0000
     0.0000   0.0000   0.0000   0.0000   0.0000   0.0000   0.0000   0.0000
     0.0000   0.0000   0.0000   0.0000   0.0000   0.0000   0.0000   0.0000

          k = 0.9000 1.4434 0.5545 (  2154 PWs)   bands (ev):

   -74.6084 -74.5723 -37.7627 -37.6714 -37.6507 -37.5930 -37.5439 -37.5339
    13.1749  16.7356  17.2789  17.7830  18.7127  18.9053  19.2654  19.6688
    20.0332  20.2623  20.9312  24.3142  28.1245  32.7375  35.2323  38.9570
    41.4776  42.1030  45.0368  45.6605  47.2102  50.0365  52.0160  53.0402
    55.5942  55.9552  58.2576  61.2127  63.7883  64.5235  65.3652  67.2110
    67.8410  69.7436  70.7840  72.8318  75.2075  77.4847  80.1807  81.6800

     occupation numbers 
     1.0000   1.0000   1.0000   1.0000   1.0000   1.0000   1.0000   1.0000
     1.0000   1.0000   1.0000   1.0000   1.0001   1.0021   1.0768   0.4795
     0.0125   0.0002   0.0000   0.0000   0.0000   0.0000   0.0000   0.0000
     0.0000   0.0000   0.0000   0.0000   0.0000   0.0000   0.0000   0.0000
     0.0000   0.0000   0.0000   0.0000   0.0000   0.0000   0.0000   0.0000
     0.0000   0.0000   0.0000   0.0000   0.0000   0.0000   0.0000   0.0000

          k = 0.9000 1.5588 0.0000 (  2149 PWs)   bands (ev):

   -74.6229 -74.5765 -37.7981 -37.6151 -37.5923 -37.5614 -37.5251 -37.5163
    11.8445  16.2437  18.0054  18.1634  18.9238  19.1983  19.2634  19.3680
    19.5177  19.6866  20.8987  23.1843  26.9329  36.6824  37.3578  43.2289
    43.7703  43.9043  44.4160  47.5697  47.9051  49.4319  52.0201  52.2138
    52.6931  52.9435  53.1889  60.1790  60.5640  60.6401  61.9147  65.8763
    69.2482  70.1843  71.0562  72.7513  74.2063  78.2416  80.5664  81.1246

     occupation numbers 
     1.0000   1.0000   1.0000   1.0000   1.0000   1.0000   1.0000   1.0000
     1.0000   1.0000   1.0000   1.0000   1.0028   1.0559   1.0763   1.0721
     0.8754   0.4326   0.0000   0.0000   0.0000   0.0000   0.0000   0.0000
     0.0000   0.0000   0.0000   0.0000   0.0000   0.0000   0.0000   0.0000
     0.0000   0.0000   0.0000   0.0000   0.0000   0.0000   0.0000   0.0000
     0.0000   0.0000   0.0000   0.0000   0.0000   0.0000   0.0000   0.0000

          k = 0.9000 1.5588 0.0616 (  2146 PWs)   bands (ev):

   -74.6217 -74.5776 -37.7925 -37.6130 -37.5931 -37.5643 -37.5265 -37.5192
    11.9378  16.1878  17.8939  18.1780  18.9556  19.0005  19.2658  19.4198
    19.6370  19.7021  20.8846  22.8076  27.5993  36.7551  37.4506  42.4563
    42.9245  44.3486  45.1399  46.2722  48.3853  49.5628  51.8552  52.0739
    52.7024  53.8067  54.0437  59.7493  60.8059  61.0076  62.0208  66.1159
    66.8264  68.9733  72.5705  73.8918  75.0607  76.3194  79.5441  83.1077

     occupation numbers 
     1.0000   1.0000   1.0000   1.0000   1.0000   1.0000   1.0000   1.0000
     1.0000   1.0000   1.0000   1.0000   1.0045   1.0083   1.0769   1.0344
     0.5661   0.3929   0.0000   0.0000   0.0000   0.0000   0.0000   0.0000
     0.0000   0.0000   0.0000   0.0000   0.0000   0.0000   0.0000   0.0000
     0.0000   0.0000   0.0000   0.0000   0.0000   0.0000   0.0000   0.0000
     0.0000   0.0000   0.0000   0.0000   0.0000   0.0000   0.0000   0.0000

          k = 0.9000 1.5588 0.1232 (  2153 PWs)   bands (ev):

   -74.6184 -74.5809 -37.7761 -37.6067 -37.5996 -37.5692 -37.5303 -37.5272
    12.2140  15.9545  17.6995  18.2232  18.7568  18.9807  19.1486  19.4523
    19.8218  19.8453  20.8381  22.1343  29.1190  36.9707  37.7227  41.3683
    41.6356  44.0620  44.7763  45.9795  48.9960  49.7593  51.3255  52.3978
    53.2376  54.8458  55.9440  59.3060  61.0003  61.6126  62.4542  64.3558
    65.6554  67.6292  72.5742  73.6362  75.1284  78.1934  79.2494  79.6692

     occupation numbers 
     1.0000   1.0000   1.0000   1.0000   1.0000   1.0000   1.0000   1.0000
     1.0000   1.0000   1.0000   1.0000   1.0002   1.0064   1.0392   0.9945
     0.1550   0.1240   0.0000   0.0000   0.0000   0.0000   0.0000   0.0000
     0.0000   0.0000   0.0000   0.0000   0.0000   0.0000   0.0000   0.0000
     0.0000   0.0000   0.0000   0.0000   0.0000   0.0000   0.0000   0.0000
     0.0000   0.0000   0.0000   0.0000   0.0000   0.0000   0.0000   0.0000

          k = 0.9000 1.5588 0.1848 (  2150 PWs)   bands (ev):

   -74.6133 -74.5861 -37.7505 -37.6188 -37.5969 -37.5688 -37.5383 -37.5362
    12.6621  15.4482  17.6370  18.2949  18.5051  18.9056  19.1052  19.3713
    20.0272  20.0983  20.7513  21.5478  31.0295  37.3214  38.1439  39.8950
    40.3932  42.2907  45.0027  46.3502  49.2593  49.4694  52.1053  53.4138
    53.7930  55.1869  58.1337  59.1110  60.9105  61.2168  61.8916  63.9155
    64.7649  68.1645  70.7913  71.5858  75.9666  76.1912  80.4909  81.4133

     occupation numbers 
     1.0000   1.0000   1.0000   1.0000   1.0000   1.0000   1.0000   1.0000
     1.0000   1.0000   1.0000   1.0000   1.0000   1.0021   1.0268   1.0706
     0.0137   0.0046   0.0000   0.0000   0.0000   0.0000   0.0000   0.0000
     0.0000   0.0000   0.0000   0.0000   0.0000   0.0000   0.0000   0.0000
     0.0000   0.0000   0.0000   0.0000   0.0000   0.0000   0.0000   0.0000
     0.0000   0.0000   0.0000   0.0000   0.0000   0.0000   0.0000   0.0000

          k = 0.9000 1.5588 0.2464 (  2148 PWs)   bands (ev):

   -74.6069 -74.5925 -37.7184 -37.6484 -37.5847 -37.5659 -37.5491 -37.5433
    13.2607  14.7381  17.7431  18.1990  18.4505  18.7571  19.1236  19.2695
    20.2399  20.3892  20.6226  21.0928  33.1606  37.7273  37.7945  38.5458
    39.7418  40.9667  45.3659  46.2163  49.2020  49.2386  53.6086  54.0369
    55.1822  55.2461  58.6529  58.9420  59.4831  60.4877  61.9554  64.0373
    66.9475  67.4914  68.9205  71.6679  72.9148  74.9395  82.5196  84.3941

     occupation numbers 
     1.0000   1.0000   1.0000   1.0000   1.0000   1.0000   1.0000   1.0000
     1.0000   1.0000   1.0000   1.0000   1.0000   1.0002   1.0317   1.0778
     0.0003   0.0000   0.0000   0.0000   0.0000   0.0000   0.0000   0.0000
     0.0000   0.0000   0.0000   0.0000   0.0000   0.0000   0.0000   0.0000
     0.0000   0.0000   0.0000   0.0000   0.0000   0.0000   0.0000   0.0000
     0.0000   0.0000   0.0000   0.0000   0.0000   0.0000   0.0000   0.0000

          k = 0.9000 1.5588 0.3080 (  2148 PWs)   bands (ev):

   -74.5997 -74.5997 -37.6831 -37.6831 -37.5720 -37.5720 -37.5499 -37.5499
    13.9735  13.9735  17.9506  17.9506  18.5931  18.5931  19.1812  19.1812
    20.4389  20.4389  20.7251  20.7251  35.4250  35.4250  38.3232  38.3232
    40.0293  40.0293  45.8077  45.8077  49.1672  49.1672  54.3481  54.3481
    55.9038  55.9038  57.7981  57.7981  59.7612  59.7612  63.5567  63.5567
    67.3762  67.3762  69.7466  69.7466  73.2796  73.2796  84.4909  84.4909

     occupation numbers 
     1.0000   1.0000   1.0000   1.0000   1.0000   1.0000   1.0000   1.0000
     1.0000   1.0000   1.0000   1.0000   1.0000   1.0000   1.0500   1.0500
     0.0000   0.0000   0.0000   0.0000   0.0000   0.0000   0.0000   0.0000
     0.0000   0.0000   0.0000   0.0000   0.0000   0.0000   0.0000   0.0000
     0.0000   0.0000   0.0000   0.0000   0.0000   0.0000   0.0000   0.0000
     0.0000   0.0000   0.0000   0.0000   0.0000   0.0000   0.0000   0.0000

          k = 0.9000 1.5588 0.3696 (  2148 PWs)   bands (ev):

   -74.6069 -74.5925 -37.7184 -37.6484 -37.5847 -37.5659 -37.5491 -37.5433
    13.2607  14.7381  17.7431  18.1990  18.4505  18.7571  19.1236  19.2695
    20.2399  20.3892  20.6226  21.0928  33.1606  37.7273  37.7945  38.5458
    39.7418  40.9667  45.3659  46.2163  49.2020  49.2386  53.6086  54.0369
    55.1822  55.2461  58.6529  58.9420  59.4831  60.4877  61.9554  64.0373
    66.9475  67.4914  68.9205  71.6679  72.9148  74.9395  82.5196  84.3941

     occupation numbers 
     1.0000   1.0000   1.0000   1.0000   1.0000   1.0000   1.0000   1.0000
     1.0000   1.0000   1.0000   1.0000   1.0000   1.0002   1.0317   1.0778
     0.0003   0.0000   0.0000   0.0000   0.0000   0.0000   0.0000   0.0000
     0.0000   0.0000   0.0000   0.0000   0.0000   0.0000   0.0000   0.0000
     0.0000   0.0000   0.0000   0.0000   0.0000   0.0000   0.0000   0.0000
     0.0000   0.0000   0.0000   0.0000   0.0000   0.0000   0.0000   0.0000

          k = 0.9000 1.5588 0.4312 (  2150 PWs)   bands (ev):

   -74.6133 -74.5861 -37.7505 -37.6188 -37.5969 -37.5688 -37.5383 -37.5362
    12.6621  15.4482  17.6370  18.2949  18.5051  18.9056  19.1052  19.3713
    20.0272  20.0983  20.7513  21.5478  31.0295  37.3214  38.1439  39.8950
    40.3932  42.2907  45.0027  46.3502  49.2593  49.4694  52.1053  53.4138
    53.7930  55.1869  58.1337  59.1110  60.9105  61.2168  61.8916  63.9155
    64.7649  68.1645  70.7913  71.5858  75.9666  76.1912  80.4909  81.4133

     occupation numbers 
     1.0000   1.0000   1.0000   1.0000   1.0000   1.0000   1.0000   1.0000
     1.0000   1.0000   1.0000   1.0000   1.0000   1.0021   1.0268   1.0706
     0.0137   0.0046   0.0000   0.0000   0.0000   0.0000   0.0000   0.0000
     0.0000   0.0000   0.0000   0.0000   0.0000   0.0000   0.0000   0.0000
     0.0000   0.0000   0.0000   0.0000   0.0000   0.0000   0.0000   0.0000
     0.0000   0.0000   0.0000   0.0000   0.0000   0.0000   0.0000   0.0000

          k = 0.9000 1.5588 0.4929 (  2153 PWs)   bands (ev):

   -74.6184 -74.5809 -37.7761 -37.6067 -37.5996 -37.5692 -37.5303 -37.5272
    12.2140  15.9545  17.6995  18.2232  18.7568  18.9807  19.1486  19.4523
    19.8218  19.8453  20.8381  22.1343  29.1190  36.9707  37.7227  41.3683
    41.6356  44.0620  44.7763  45.9795  48.9960  49.7593  51.3255  52.3978
    53.2376  54.8458  55.9440  59.3060  61.0003  61.6126  62.4542  64.3558
    65.6554  67.6292  72.5742  73.6362  75.1284  78.1934  79.2494  79.6692

     occupation numbers 
     1.0000   1.0000   1.0000   1.0000   1.0000   1.0000   1.0000   1.0000
     1.0000   1.0000   1.0000   1.0000   1.0002   1.0064   1.0392   0.9945
     0.1550   0.1240   0.0000   0.0000   0.0000   0.0000   0.0000   0.0000
     0.0000   0.0000   0.0000   0.0000   0.0000   0.0000   0.0000   0.0000
     0.0000   0.0000   0.0000   0.0000   0.0000   0.0000   0.0000   0.0000
     0.0000   0.0000   0.0000   0.0000   0.0000   0.0000   0.0000   0.0000

          k = 0.9000 1.5588 0.5545 (  2146 PWs)   bands (ev):

   -74.6217 -74.5776 -37.7925 -37.6130 -37.5931 -37.5643 -37.5265 -37.5192
    11.9378  16.1878  17.8939  18.1780  18.9556  19.0005  19.2658  19.4198
    19.6370  19.7021  20.8846  22.8076  27.5993  36.7551  37.4506  42.4563
    42.9245  44.3486  45.1399  46.2722  48.3853  49.5628  51.8552  52.0739
    52.7024  53.8067  54.0437  59.7493  60.8059  61.0076  62.0208  66.1159
    66.8264  68.9733  72.5705  73.8918  75.0607  76.3194  79.5441  83.1077

     occupation numbers 
     1.0000   1.0000   1.0000   1.0000   1.0000   1.0000   1.0000   1.0000
     1.0000   1.0000   1.0000   1.0000   1.0045   1.0083   1.0769   1.0344
     0.5661   0.3929   0.0000   0.0000   0.0000   0.0000   0.0000   0.0000
     0.0000   0.0000   0.0000   0.0000   0.0000   0.0000   0.0000   0.0000
     0.0000   0.0000   0.0000   0.0000   0.0000   0.0000   0.0000   0.0000
     0.0000   0.0000   0.0000   0.0000   0.0000   0.0000   0.0000   0.0000

     the Fermi energy is    19.6991 ev
     (compare with:    19.7403 eV, computed in scf)

     Writing all to output data dir ./Co.save/
 
     init_run     :      0.09s CPU      0.10s WALL (       1 calls)
     electrons    :     71.38s CPU     71.84s WALL (       1 calls)

     Called by init_run:
     wfcinit      :      0.00s CPU      0.00s WALL (       1 calls)
     wfcinit:wfcr :      1.84s CPU      1.87s WALL (      40 calls)
     potinit      :      0.07s CPU      0.07s WALL (       1 calls)
     hinit0       :      0.01s CPU      0.01s WALL (       1 calls)

     Called by electrons:
     c_bands      :     71.33s CPU     71.72s WALL (       1 calls)
     v_of_rho     :      0.05s CPU      0.05s WALL (       1 calls)
     v_h          :      0.00s CPU      0.00s WALL (       1 calls)
     v_xc         :      0.05s CPU      0.05s WALL (       1 calls)

     Called by c_bands:
     init_us_2    :      0.02s CPU      0.02s WALL (      40 calls)
     init_us_2:cp :      0.02s CPU      0.02s WALL (      40 calls)
     cegterg      :     42.29s CPU     42.57s WALL (      78 calls)

     Called by sum_band:

     Called by *egterg:
     cdiaghg      :      3.50s CPU      3.51s WALL (    1139 calls)
     cegterg:over :      3.33s CPU      3.34s WALL (    1099 calls)
     cegterg:upda :      1.95s CPU      1.98s WALL (    1099 calls)
     cegterg:last :      3.45s CPU      3.45s WALL (     696 calls)
     h_psi        :     31.23s CPU     31.47s WALL (    1217 calls)
     g_psi        :      0.13s CPU      0.13s WALL (    1099 calls)

     Called by h_psi:
     h_psi:calbec :      0.83s CPU      0.83s WALL (    1217 calls)
     vloc_psi     :     29.45s CPU     29.67s WALL (    1217 calls)
     add_vuspsi   :      0.79s CPU      0.80s WALL (    1217 calls)

     General routines
     calbec       :      0.82s CPU      0.83s WALL (    1217 calls)
     fft          :      0.01s CPU      0.01s WALL (      18 calls)
     fftw         :     27.02s CPU     27.22s WALL (   72132 calls)
     davcio       :      0.03s CPU      0.06s WALL (      80 calls)
 
     Parallel routines
 
     PWSCF        :   1m14.27s CPU   1m19.54s WALL

 
   This run was terminated on:  15:22:44  20May2023            

=------------------------------------------------------------------------------=
   JOB DONE.
=------------------------------------------------------------------------------=
Warning: ieee_underflow is signaling
Warning: ieee_inexact is signaling
FORTRAN STOP
Warning: ieee_underflow is signaling
Warning: ieee_inexact is signaling
FORTRAN STOP
Warning: ieee_underflow is signaling
Warning: ieee_inexact is signaling
FORTRAN STOP
Warning: ieee_underflow is signaling
Warning: ieee_inexact is signaling
FORTRAN STOP
Warning: ieee_underflow is signaling
Warning: ieee_inexact is signaling
FORTRAN STOP
Warning: ieee_underflow is signaling
Warning: ieee_inexact is signaling
FORTRAN STOP
Warning: ieee_underflow is signaling
Warning: ieee_inexact is signaling
FORTRAN STOP
Warning: ieee_underflow is signaling
Warning: ieee_inexact is signaling
FORTRAN STOP
Warning: ieee_underflow is signaling
Warning: ieee_inexact is signaling
FORTRAN STOP
Warning: ieee_underflow is signaling
Warning: ieee_inexact is signaling
FORTRAN STOP
Warning: ieee_underflow is signaling
Warning: ieee_inexact is signaling
FORTRAN STOP
Warning: ieee_underflow is signaling
Warning: ieee_inexact is signaling
FORTRAN STOP
Warning: ieee_underflow is signaling
Warning: ieee_inexact is signaling
FORTRAN STOP
Warning: ieee_underflow is signaling
Warning: ieee_inexact is signaling
FORTRAN STOP
Warning: ieee_underflow is signaling
Warning: ieee_inexact is signaling
FORTRAN STOP
Warning: ieee_underflow is signaling
Warning: ieee_inexact is signaling
FORTRAN STOP
Warning: ieee_underflow is signaling
Warning: ieee_inexact is signaling
FORTRAN STOP
Warning: ieee_underflow is signaling
Warning: ieee_inexact is signaling
FORTRAN STOP
Warning: ieee_underflow is signaling
Warning: ieee_inexact is signaling
FORTRAN STOP
Warning: ieee_underflow is signaling
Warning: ieee_inexact is signaling
FORTRAN STOP
Warning: ieee_underflow is signaling
Warning: ieee_inexact is signaling
FORTRAN STOP
Warning: ieee_underflow is signaling
Warning: ieee_inexact is signaling
FORTRAN STOP
Warning: ieee_underflow is signaling
Warning: ieee_inexact is signaling
FORTRAN STOP
Warning: ieee_underflow is signaling
Warning: ieee_inexact is signaling
FORTRAN STOP
Warning: ieee_underflow is signaling
Warning: ieee_inexact is signaling
FORTRAN STOP
Warning: ieee_underflow is signaling
Warning: ieee_inexact is signaling
FORTRAN STOP
Warning: ieee_underflow is signaling
Warning: ieee_inexact is signaling
FORTRAN STOP
Warning: ieee_underflow is signaling
Warning: ieee_inexact is signaling
FORTRAN STOP
Warning: ieee_underflow is signaling
Warning: ieee_inexact is signaling
FORTRAN STOP
Warning: ieee_underflow is signaling
Warning: ieee_inexact is signaling
FORTRAN STOP
Warning: ieee_underflow is signaling
Warning: ieee_inexact is signaling
FORTRAN STOP
Warning: ieee_underflow is signaling
Warning: ieee_inexact is signaling
FORTRAN STOP
Warning: ieee_underflow is signaling
Warning: ieee_inexact is signaling
FORTRAN STOP
Warning: ieee_underflow is signaling
Warning: ieee_inexact is signaling
FORTRAN STOP
Warning: ieee_underflow is signaling
Warning: ieee_inexact is signaling
FORTRAN STOP
Warning: ieee_underflow is signaling
Warning: ieee_inexact is signaling
FORTRAN STOP
Warning: ieee_underflow is signaling
Warning: ieee_inexact is signaling
FORTRAN STOP
Warning: ieee_underflow is signaling
Warning: ieee_inexact is signaling
FORTRAN STOP
Warning: ieee_underflow is signaling
Warning: ieee_inexact is signaling
FORTRAN STOP
Warning: ieee_underflow is signaling
Warning: ieee_inexact is signaling
FORTRAN STOP
Warning: ieee_underflow is signaling
Warning: ieee_inexact is signaling
FORTRAN STOP
Warning: ieee_underflow is signaling
Warning: ieee_inexact is signaling
FORTRAN STOP
Warning: ieee_underflow is signaling
Warning: ieee_inexact is signaling
FORTRAN STOP
Warning: ieee_underflow is signaling
Warning: ieee_inexact is signaling
FORTRAN STOP
Warning: ieee_underflow is signaling
Warning: ieee_inexact is signaling
FORTRAN STOP
Warning: ieee_underflow is signaling
Warning: ieee_inexact is signaling
FORTRAN STOP
Warning: ieee_underflow is signaling
Warning: ieee_inexact is signaling
FORTRAN STOP
Warning: ieee_underflow is signaling
Warning: ieee_inexact is signaling
FORTRAN STOP
Warning: ieee_underflow is signaling
Warning: ieee_inexact is signaling
FORTRAN STOP
Warning: ieee_underflow is signaling
Warning: ieee_inexact is signaling
FORTRAN STOP
