
     Program PWSCF v.7.1 starts on 20May2023 at 13:59:49 

     This program is part of the open-source Quantum ESPRESSO suite
     for quantum simulation of materials; please cite
         "P. Giannozzi et al., J. Phys.:Condens. Matter 21 395502 (2009);
         "P. Giannozzi et al., J. Phys.:Condens. Matter 29 465901 (2017);
         "P. Giannozzi et al., J. Chem. Phys. 152 154105 (2020);
          URL http://www.quantum-espresso.org", 
     in publications or presentations arising from this work. More details at
     http://www.quantum-espresso.org/quote

     Parallel version (MPI & OpenMP), running on      64 processor cores
     Number of MPI processes:                64
     Threads/MPI process:                     1

     MPI processes distributed on     1 nodes
     84821 MiB available memory on the printing compute node when the environment starts
 
     Reading input from Co.scf.in

     Current dimensions of program PWSCF are:
     Max number of different atomic species (ntypx) = 10
     Max number of k-points (npk) =  40000
     Max angular momentum in pseudopotentials (lmaxx) =  4
Error reading attribute index: expected integer, found *

     Fixed quantization axis for GGA:     0.000000    0.000000    1.000000
 
     K-points division:     npool     =      64
     Subspace diagonalization in iterative solution of the eigenvalue problem:
     a serial algorithm will be used

 
     G-vector sticks info
     --------------------
     sticks:   dense  smooth     PW     G-vecs:    dense   smooth      PW
     Sum         559     559    163                17261    17261    2863
 
     Using Slab Decomposition
 


     bravais-lattice index     =            4
     lattice parameter (alat)  =       4.7377  a.u.
     unit-cell volume          =     149.4877 (a.u.)^3
     number of atoms/cell      =            2
     number of atomic types    =            1
     number of electrons       =        34.00
     number of Kohn-Sham states=           42
     kinetic-energy cutoff     =      90.0000  Ry
     charge density cutoff     =     360.0000  Ry
     scf convergence threshold =      1.0E-10
     mixing beta               =       0.7000
     number of iterations used =            8  plain     mixing
     Exchange-correlation= PBE
                           (   1   4   3   4   0   0   0)
     Noncollinear calculation with spin-orbit


     celldm(1)=   4.737700  celldm(2)=   0.000000  celldm(3)=   1.623200
     celldm(4)=   0.000000  celldm(5)=   0.000000  celldm(6)=   0.000000

     crystal axes: (cart. coord. in units of alat)
               a(1) = (   1.000000   0.000000   0.000000 )  
               a(2) = (  -0.500000   0.866025   0.000000 )  
               a(3) = (   0.000000   0.000000   1.623200 )  

     reciprocal axes: (cart. coord. in units 2 pi/alat)
               b(1) = (  1.000000  0.577350 -0.000000 )  
               b(2) = (  0.000000  1.154701  0.000000 )  
               b(3) = (  0.000000 -0.000000  0.616067 )  


     PseudoPot. # 1 for Co read from file:
     ./Co_ONCV_PBE_FR-1.0.upf
     MD5 check sum: 5200631a6ab1dc1b53d71ef650dcc2c4
     Pseudo is Norm-conserving, Zval = 17.0
     Generated using ONCVPSP code by D. R. Hamann
     Using radial grid of  602 points, 10 beta functions with: 
                l(1) =   0
                l(2) =   0
                l(3) =   1
                l(4) =   1
                l(5) =   1
                l(6) =   1
                l(7) =   2
                l(8) =   2
                l(9) =   2
               l(10) =   2

     atomic species   valence    mass     pseudopotential
        Co            17.00    58.93300     Co( 1.00)

     24 Sym. Ops., with inversion, found (12 have fractional translation)


                                    s                        frac. trans.

      isym =  1     identity                                     

 Time Reversal             0
 cryst.   s( 1) = (     1          0          0      )
                  (     0          1          0      )
                  (     0          0          1      )

 cart.    s( 1) = (  1.0000000  0.0000000  0.0000000 )
                  (  0.0000000  1.0000000  0.0000000 )
                  (  0.0000000  0.0000000  1.0000000 )


      isym =  2     180 deg rotation - cart. axis [0,0,1]        

 Time Reversal             0
 cryst.   s( 2) = (    -1          0          0      )    f =(  0.0000000 )
                  (     0         -1          0      )       (  0.0000000 )
                  (     0          0          1      )       ( -0.5000000 )

 cart.    s( 2) = ( -1.0000000  0.0000000  0.0000000 )    f =(  0.0000000 )
                  (  0.0000000 -1.0000000  0.0000000 )       (  0.0000000 )
                  (  0.0000000  0.0000000  1.0000000 )       ( -0.8116000 )


      isym =  3     180 deg rotation - cart. axis [0,1,0]        

 Time Reversal             1
 cryst.   s( 3) = (    -1          0          0      )    f =(  0.0000000 )
                  (     1          1          0      )       (  0.0000000 )
                  (     0          0         -1      )       (  0.5000000 )

 cart.    s( 3) = ( -1.0000000  0.0000000  0.0000000 )    f =(  0.0000000 )
                  (  0.0000000  1.0000000  0.0000000 )       (  0.0000000 )
                  (  0.0000000  0.0000000 -1.0000000 )       (  0.8116000 )


      isym =  4     180 deg rotation - cart. axis [1,0,0]        

 Time Reversal             1
 cryst.   s( 4) = (     1          0          0      )
                  (    -1         -1          0      )
                  (     0          0         -1      )

 cart.    s( 4) = (  1.0000000  0.0000000  0.0000000 )
                  (  0.0000000 -1.0000000  0.0000000 )
                  (  0.0000000  0.0000000 -1.0000000 )


      isym =  5      60 deg rotation - cryst. axis [0,0,1]       

 Time Reversal             0
 cryst.   s( 5) = (     1          1          0      )    f =(  0.0000000 )
                  (    -1          0          0      )       (  0.0000000 )
                  (     0          0          1      )       ( -0.5000000 )

 cart.    s( 5) = (  0.5000000 -0.8660254  0.0000000 )    f =(  0.0000000 )
                  (  0.8660254  0.5000000  0.0000000 )       (  0.0000000 )
                  (  0.0000000  0.0000000  1.0000000 )       ( -0.8116000 )


      isym =  6      60 deg rotation - cryst. axis [0,0,-1]      

 Time Reversal             0
 cryst.   s( 6) = (     0         -1          0      )    f =(  0.0000000 )
                  (     1          1          0      )       ( -0.0000000 )
                  (     0          0          1      )       ( -0.5000000 )

 cart.    s( 6) = (  0.5000000  0.8660254  0.0000000 )    f =(  0.0000000 )
                  ( -0.8660254  0.5000000  0.0000000 )       ( -0.0000000 )
                  (  0.0000000  0.0000000  1.0000000 )       ( -0.8116000 )


      isym =  7     120 deg rotation - cryst. axis [0,0,1]       

 Time Reversal             0
 cryst.   s( 7) = (     0          1          0      )
                  (    -1         -1          0      )
                  (     0          0          1      )

 cart.    s( 7) = ( -0.5000000 -0.8660254  0.0000000 )
                  (  0.8660254 -0.5000000  0.0000000 )
                  (  0.0000000  0.0000000  1.0000000 )


      isym =  8     120 deg rotation - cryst. axis [0,0,-1]      

 Time Reversal             0
 cryst.   s( 8) = (    -1         -1          0      )
                  (     1          0          0      )
                  (     0          0          1      )

 cart.    s( 8) = ( -0.5000000  0.8660254  0.0000000 )
                  ( -0.8660254 -0.5000000  0.0000000 )
                  (  0.0000000  0.0000000  1.0000000 )


      isym =  9     180 deg rotation - cryst. axis [1,-1,0]      

 Time Reversal             1
 cryst.   s( 9) = (     0         -1          0      )    f =(  0.0000000 )
                  (    -1          0          0      )       (  0.0000000 )
                  (     0          0         -1      )       (  0.5000000 )

 cart.    s( 9) = (  0.5000000 -0.8660254  0.0000000 )    f =(  0.0000000 )
                  ( -0.8660254 -0.5000000  0.0000000 )       (  0.0000000 )
                  (  0.0000000  0.0000000 -1.0000000 )       (  0.8116000 )


      isym = 10     180 deg rotation - cryst. axis [2,1,0]       

 Time Reversal             1
 cryst.   s(10) = (     1          1          0      )    f =(  0.0000000 )
                  (     0         -1          0      )       ( -0.0000000 )
                  (     0          0         -1      )       (  0.5000000 )

 cart.    s(10) = (  0.5000000  0.8660254  0.0000000 )    f =(  0.0000000 )
                  (  0.8660254 -0.5000000  0.0000000 )       ( -0.0000000 )
                  (  0.0000000  0.0000000 -1.0000000 )       (  0.8116000 )


      isym = 11     180 deg rotation - cryst. axis [0,1,0]       

 Time Reversal             1
 cryst.   s(11) = (    -1         -1          0      )
                  (     0          1          0      )
                  (     0          0         -1      )

 cart.    s(11) = ( -0.5000000 -0.8660254  0.0000000 )
                  ( -0.8660254  0.5000000  0.0000000 )
                  (  0.0000000  0.0000000 -1.0000000 )


      isym = 12     180 deg rotation - cryst. axis [1,1,0]       

 Time Reversal             1
 cryst.   s(12) = (     0          1          0      )
                  (     1          0          0      )
                  (     0          0         -1      )

 cart.    s(12) = ( -0.5000000  0.8660254  0.0000000 )
                  (  0.8660254  0.5000000  0.0000000 )
                  (  0.0000000  0.0000000 -1.0000000 )


      isym = 13     inversion                                    

 Time Reversal             0
 cryst.   s(13) = (    -1          0          0      )
                  (     0         -1          0      )
                  (     0          0         -1      )

 cart.    s(13) = ( -1.0000000  0.0000000  0.0000000 )
                  (  0.0000000 -1.0000000  0.0000000 )
                  (  0.0000000  0.0000000 -1.0000000 )


      isym = 14     inv. 180 deg rotation - cart. axis [0,0,1]   

 Time Reversal             0
 cryst.   s(14) = (     1          0          0      )    f =(  0.0000000 )
                  (     0          1          0      )       (  0.0000000 )
                  (     0          0         -1      )       (  0.5000000 )

 cart.    s(14) = (  1.0000000  0.0000000  0.0000000 )    f =(  0.0000000 )
                  (  0.0000000  1.0000000  0.0000000 )       (  0.0000000 )
                  (  0.0000000  0.0000000 -1.0000000 )       (  0.8116000 )


      isym = 15     inv. 180 deg rotation - cart. axis [0,1,0]   

 Time Reversal             1
 cryst.   s(15) = (     1          0          0      )    f =(  0.0000000 )
                  (    -1         -1          0      )       (  0.0000000 )
                  (     0          0          1      )       ( -0.5000000 )

 cart.    s(15) = (  1.0000000  0.0000000  0.0000000 )    f =(  0.0000000 )
                  (  0.0000000 -1.0000000  0.0000000 )       (  0.0000000 )
                  (  0.0000000  0.0000000  1.0000000 )       ( -0.8116000 )


      isym = 16     inv. 180 deg rotation - cart. axis [1,0,0]   

 Time Reversal             1
 cryst.   s(16) = (    -1          0          0      )
                  (     1          1          0      )
                  (     0          0          1      )

 cart.    s(16) = ( -1.0000000  0.0000000  0.0000000 )
                  (  0.0000000  1.0000000  0.0000000 )
                  (  0.0000000  0.0000000  1.0000000 )


      isym = 17     inv.  60 deg rotation - cryst. axis [0,0,1]  

 Time Reversal             0
 cryst.   s(17) = (    -1         -1          0      )    f =(  0.0000000 )
                  (     1          0          0      )       (  0.0000000 )
                  (     0          0         -1      )       (  0.5000000 )

 cart.    s(17) = ( -0.5000000  0.8660254  0.0000000 )    f =(  0.0000000 )
                  ( -0.8660254 -0.5000000  0.0000000 )       (  0.0000000 )
                  (  0.0000000  0.0000000 -1.0000000 )       (  0.8116000 )


      isym = 18     inv.  60 deg rotation - cryst. axis [0,0,-1] 

 Time Reversal             0
 cryst.   s(18) = (     0          1          0      )    f =(  0.0000000 )
                  (    -1         -1          0      )       ( -0.0000000 )
                  (     0          0         -1      )       (  0.5000000 )

 cart.    s(18) = ( -0.5000000 -0.8660254  0.0000000 )    f =(  0.0000000 )
                  (  0.8660254 -0.5000000  0.0000000 )       ( -0.0000000 )
                  (  0.0000000  0.0000000 -1.0000000 )       (  0.8116000 )


      isym = 19     inv. 120 deg rotation - cryst. axis [0,0,1]  

 Time Reversal             0
 cryst.   s(19) = (     0         -1          0      )
                  (     1          1          0      )
                  (     0          0         -1      )

 cart.    s(19) = (  0.5000000  0.8660254  0.0000000 )
                  ( -0.8660254  0.5000000  0.0000000 )
                  (  0.0000000  0.0000000 -1.0000000 )


      isym = 20     inv. 120 deg rotation - cryst. axis [0,0,-1] 

 Time Reversal             0
 cryst.   s(20) = (     1          1          0      )
                  (    -1          0          0      )
                  (     0          0         -1      )

 cart.    s(20) = (  0.5000000 -0.8660254  0.0000000 )
                  (  0.8660254  0.5000000  0.0000000 )
                  (  0.0000000  0.0000000 -1.0000000 )


      isym = 21     inv. 180 deg rotation - cryst. axis [1,-1,0] 

 Time Reversal             1
 cryst.   s(21) = (     0          1          0      )    f =(  0.0000000 )
                  (     1          0          0      )       (  0.0000000 )
                  (     0          0          1      )       ( -0.5000000 )

 cart.    s(21) = ( -0.5000000  0.8660254  0.0000000 )    f =(  0.0000000 )
                  (  0.8660254  0.5000000  0.0000000 )       (  0.0000000 )
                  (  0.0000000  0.0000000  1.0000000 )       ( -0.8116000 )


      isym = 22     inv. 180 deg rotation - cryst. axis [2,1,0]  

 Time Reversal             1
 cryst.   s(22) = (    -1         -1          0      )    f =(  0.0000000 )
                  (     0          1          0      )       ( -0.0000000 )
                  (     0          0          1      )       ( -0.5000000 )

 cart.    s(22) = ( -0.5000000 -0.8660254  0.0000000 )    f =(  0.0000000 )
                  ( -0.8660254  0.5000000  0.0000000 )       ( -0.0000000 )
                  (  0.0000000  0.0000000  1.0000000 )       ( -0.8116000 )


      isym = 23     inv. 180 deg rotation - cryst. axis [0,1,0]  

 Time Reversal             1
 cryst.   s(23) = (     1          1          0      )
                  (     0         -1          0      )
                  (     0          0          1      )

 cart.    s(23) = (  0.5000000  0.8660254  0.0000000 )
                  (  0.8660254 -0.5000000  0.0000000 )
                  (  0.0000000  0.0000000  1.0000000 )


      isym = 24     inv. 180 deg rotation - cryst. axis [1,1,0]  

 Time Reversal             1
 cryst.   s(24) = (     0         -1          0      )
                  (    -1          0          0      )
                  (     0          0          1      )

 cart.    s(24) = (  0.5000000 -0.8660254  0.0000000 )
                  ( -0.8660254 -0.5000000  0.0000000 )
                  (  0.0000000  0.0000000  1.0000000 )


     the magnetic double point group is D_6h(6/mmm) [C_6h (6/m) ]
     using the double point group C_6h (6/m) 
     there are 24 classes and 12 irreducible representations
     the character table:

       E     -E    C6    -C6   C3    -C3   C2    -C2   C3^2  -C3^2 C6^5  -C6^5
                                                                              
G_7+   1.00 -1.00  0.87 -0.87  0.50 -0.50  0.00  0.00  0.50 -0.50  0.87 -0.87
G_8+   1.00 -1.00  0.87 -0.87  0.50 -0.50  0.00  0.00  0.50 -0.50  0.87 -0.87
G_9+   1.00 -1.00 -0.87  0.87  0.50 -0.50  0.00  0.00  0.50 -0.50 -0.87  0.87
G_10+  1.00 -1.00 -0.87  0.87  0.50 -0.50  0.00  0.00  0.50 -0.50 -0.87  0.87
G_11+  1.00 -1.00  0.00  0.00 -1.00  1.00  0.00  0.00 -1.00  1.00  0.00  0.00
G_12+  1.00 -1.00  0.00  0.00 -1.00  1.00  0.00  0.00 -1.00  1.00  0.00  0.00
G_7-   1.00 -1.00  0.87 -0.87  0.50 -0.50  0.00  0.00  0.50 -0.50  0.87 -0.87
G_8-   1.00 -1.00  0.87 -0.87  0.50 -0.50  0.00  0.00  0.50 -0.50  0.87 -0.87
G_9-   1.00 -1.00 -0.87  0.87  0.50 -0.50  0.00  0.00  0.50 -0.50 -0.87  0.87
G_10-  1.00 -1.00 -0.87  0.87  0.50 -0.50  0.00  0.00  0.50 -0.50 -0.87  0.87
G_11-  1.00 -1.00  0.00  0.00 -1.00  1.00  0.00  0.00 -1.00  1.00  0.00  0.00
G_12-  1.00 -1.00  0.00  0.00 -1.00  1.00  0.00  0.00 -1.00  1.00  0.00  0.00

       i     -i    S3^5  -S3^5 S6^5  -S6^5 s_h   -s_h  S6    -S6   S3    -S3  
                                                                              
G_7+   1.00 -1.00  0.87 -0.87  0.50 -0.50  0.00  0.00  0.50 -0.50  0.87 -0.87
G_8+   1.00 -1.00  0.87 -0.87  0.50 -0.50  0.00  0.00  0.50 -0.50  0.87 -0.87
G_9+   1.00 -1.00 -0.87  0.87  0.50 -0.50  0.00  0.00  0.50 -0.50 -0.87  0.87
G_10+  1.00 -1.00 -0.87  0.87  0.50 -0.50  0.00  0.00  0.50 -0.50 -0.87  0.87
G_11+  1.00 -1.00  0.00  0.00 -1.00  1.00  0.00  0.00 -1.00  1.00  0.00  0.00
G_12+  1.00 -1.00  0.00  0.00 -1.00  1.00  0.00  0.00 -1.00  1.00  0.00  0.00
G_7-  -1.00  1.00 -0.87  0.87 -0.50  0.50  0.00  0.00 -0.50  0.50 -0.87  0.87
G_8-  -1.00  1.00 -0.87  0.87 -0.50  0.50  0.00  0.00 -0.50  0.50 -0.87  0.87
G_9-  -1.00  1.00  0.87 -0.87 -0.50  0.50  0.00  0.00 -0.50  0.50  0.87 -0.87
G_10- -1.00  1.00  0.87 -0.87 -0.50  0.50  0.00  0.00 -0.50  0.50  0.87 -0.87
G_11- -1.00  1.00  0.00  0.00  1.00 -1.00  0.00  0.00  1.00 -1.00  0.00  0.00
G_12- -1.00  1.00  0.00  0.00  1.00 -1.00  0.00  0.00  1.00 -1.00  0.00  0.00

     imaginary part

       E     -E    C6    -C6   C3    -C3   C2    -C2   C3^2  -C3^2 C6^5  -C6^5
                                                                              
G_7+   0.00  0.00  0.50 -0.50  0.87 -0.87  1.00 -1.00 -0.87  0.87 -0.50  0.50
G_8+   0.00  0.00 -0.50  0.50 -0.87  0.87 -1.00  1.00  0.87 -0.87  0.50 -0.50
G_9+   0.00  0.00 -0.50  0.50  0.87 -0.87 -1.00  1.00 -0.87  0.87  0.50 -0.50
G_10+  0.00  0.00  0.50 -0.50 -0.87  0.87  1.00 -1.00  0.87 -0.87 -0.50  0.50
G_11+  0.00  0.00  1.00 -1.00  0.00  0.00 -1.00  1.00  0.00  0.00 -1.00  1.00
G_12+  0.00  0.00 -1.00  1.00  0.00  0.00  1.00 -1.00  0.00  0.00  1.00 -1.00
G_7-   0.00  0.00  0.50 -0.50  0.87 -0.87  1.00 -1.00 -0.87  0.87 -0.50  0.50
G_8-   0.00  0.00 -0.50  0.50 -0.87  0.87 -1.00  1.00  0.87 -0.87  0.50 -0.50
G_9-   0.00  0.00 -0.50  0.50  0.87 -0.87 -1.00  1.00 -0.87  0.87  0.50 -0.50
G_10-  0.00  0.00  0.50 -0.50 -0.87  0.87  1.00 -1.00  0.87 -0.87 -0.50  0.50
G_11-  0.00  0.00  1.00 -1.00  0.00  0.00 -1.00  1.00  0.00  0.00 -1.00  1.00
G_12-  0.00  0.00 -1.00  1.00  0.00  0.00  1.00 -1.00  0.00  0.00  1.00 -1.00

       i     -i    S3^5  -S3^5 S6^5  -S6^5 s_h   -s_h  S6    -S6   S3    -S3  
                                                                              
G_7+   0.00  0.00  0.50 -0.50  0.87 -0.87  1.00 -1.00 -0.87  0.87 -0.50  0.50
G_8+   0.00  0.00 -0.50  0.50 -0.87  0.87 -1.00  1.00  0.87 -0.87  0.50 -0.50
G_9+   0.00  0.00 -0.50  0.50  0.87 -0.87 -1.00  1.00 -0.87  0.87  0.50 -0.50
G_10+  0.00  0.00  0.50 -0.50 -0.87  0.87  1.00 -1.00  0.87 -0.87 -0.50  0.50
G_11+  0.00  0.00  1.00 -1.00  0.00  0.00 -1.00  1.00  0.00  0.00 -1.00  1.00
G_12+  0.00  0.00 -1.00  1.00  0.00  0.00  1.00 -1.00  0.00  0.00  1.00 -1.00
G_7-   0.00  0.00 -0.50  0.50 -0.87  0.87 -1.00  1.00  0.87 -0.87  0.50 -0.50
G_8-   0.00  0.00  0.50 -0.50  0.87 -0.87  1.00 -1.00 -0.87  0.87 -0.50  0.50
G_9-   0.00  0.00  0.50 -0.50 -0.87  0.87  1.00 -1.00  0.87 -0.87 -0.50  0.50
G_10-  0.00  0.00 -0.50  0.50  0.87 -0.87 -1.00  1.00 -0.87  0.87  0.50 -0.50
G_11-  0.00  0.00 -1.00  1.00  0.00  0.00  1.00 -1.00  0.00  0.00  1.00 -1.00
G_12-  0.00  0.00  1.00 -1.00  0.00  0.00 -1.00  1.00  0.00  0.00 -1.00  1.00

     the symmetry operations in each class and the name of the first element:

     E             1
          identity                                               
     -E           -1
          identity E                                             
     C6            3
           60 deg rotation - cryst. axis [0,0,1]                 
     -C6          -3
           60 deg rotation - cryst. axis [0,0,1] E               
     C3            5
          120 deg rotation - cryst. axis [0,0,1]                 
     -C3          -5
          120 deg rotation - cryst. axis [0,0,1] E               
     C2            2
          180 deg rotation - cart. axis [0,0,1]                  
     -C2          -2
          180 deg rotation - cart. axis [0,0,1] E                
     C3^2          6
          120 deg rotation - cryst. axis [0,0,-1]                
     -C3^2        -6
          120 deg rotation - cryst. axis [0,0,-1] E              
     C6^5          4
           60 deg rotation - cryst. axis [0,0,-1]                
     -C6^5        -4
           60 deg rotation - cryst. axis [0,0,-1] E              
     i             7
          inversion                                              
     -i           -7
          inversion E                                            
     S3^5          9
          inv.  60 deg rotation - cryst. axis [0,0,1]            
     -S3^5        -9
          inv.  60 deg rotation - cryst. axis [0,0,1] E          
     S6^5         11
          inv. 120 deg rotation - cryst. axis [0,0,1]            
     -S6^5       -11
          inv. 120 deg rotation - cryst. axis [0,0,1] E          
     s_h           8
          inv. 180 deg rotation - cart. axis [0,0,1]             
     -s_h         -8
          inv. 180 deg rotation - cart. axis [0,0,1] E           
     S6           12
          inv. 120 deg rotation - cryst. axis [0,0,-1]           
     -S6         -12
          inv. 120 deg rotation - cryst. axis [0,0,-1] E         
     S3           10
          inv.  60 deg rotation - cryst. axis [0,0,-1]           
     -S3         -10
          inv.  60 deg rotation - cryst. axis [0,0,-1] E         

   Cartesian axes

     site n.     atom                  positions (alat units)
         1           Co  tau(   1) = (  -0.0000000   0.5773503   0.4058000  )
         2           Co  tau(   2) = (   0.5000000   0.2886751   1.2174000  )

   Crystallographic axes

     site n.     atom                  positions (cryst. coord.)
         1           Co  tau(   1) = (  0.3333333  0.6666667  0.2500000  )
         2           Co  tau(   2) = (  0.6666667  0.3333333  0.7500000  )

     number of k points=   270  Marzari-Vanderbilt smearing, width (Ry)=  0.0200
                       cart. coord. in units 2pi/alat
        k(    1) = (   0.0000000   0.0000000   0.0000000), wk =   0.0002441
        k(    2) = (   0.0000000   0.0000000   0.0385042), wk =   0.0004883
        k(    3) = (   0.0000000   0.0000000   0.0770084), wk =   0.0004883
        k(    4) = (   0.0000000   0.0000000   0.1155126), wk =   0.0004883
        k(    5) = (   0.0000000   0.0000000   0.1540168), wk =   0.0004883
        k(    6) = (   0.0000000   0.0000000   0.1925209), wk =   0.0004883
        k(    7) = (   0.0000000   0.0000000   0.2310251), wk =   0.0004883
        k(    8) = (   0.0000000   0.0000000   0.2695293), wk =   0.0004883
        k(    9) = (   0.0000000   0.0000000  -0.3080335), wk =   0.0002441
        k(   10) = (   0.0000000   0.0721688   0.0000000), wk =   0.0014648
        k(   11) = (   0.0000000   0.0721688   0.0385042), wk =   0.0029297
        k(   12) = (   0.0000000   0.0721688   0.0770084), wk =   0.0029297
        k(   13) = (   0.0000000   0.0721688   0.1155126), wk =   0.0029297
        k(   14) = (   0.0000000   0.0721688   0.1540168), wk =   0.0029297
        k(   15) = (   0.0000000   0.0721688   0.1925209), wk =   0.0029297
        k(   16) = (   0.0000000   0.0721688   0.2310251), wk =   0.0029297
        k(   17) = (   0.0000000   0.0721688   0.2695293), wk =   0.0029297
        k(   18) = (   0.0000000   0.0721688  -0.3080335), wk =   0.0014648
        k(   19) = (   0.0000000   0.1443376   0.0000000), wk =   0.0014648
        k(   20) = (   0.0000000   0.1443376   0.0385042), wk =   0.0029297
        k(   21) = (   0.0000000   0.1443376   0.0770084), wk =   0.0029297
        k(   22) = (   0.0000000   0.1443376   0.1155126), wk =   0.0029297
        k(   23) = (   0.0000000   0.1443376   0.1540168), wk =   0.0029297
        k(   24) = (   0.0000000   0.1443376   0.1925209), wk =   0.0029297
        k(   25) = (   0.0000000   0.1443376   0.2310251), wk =   0.0029297
        k(   26) = (   0.0000000   0.1443376   0.2695293), wk =   0.0029297
        k(   27) = (   0.0000000   0.1443376  -0.3080335), wk =   0.0014648
        k(   28) = (   0.0000000   0.2165064   0.0000000), wk =   0.0014648
        k(   29) = (   0.0000000   0.2165064   0.0385042), wk =   0.0029297
        k(   30) = (   0.0000000   0.2165064   0.0770084), wk =   0.0029297
        k(   31) = (   0.0000000   0.2165064   0.1155126), wk =   0.0029297
        k(   32) = (   0.0000000   0.2165064   0.1540168), wk =   0.0029297
        k(   33) = (   0.0000000   0.2165064   0.1925209), wk =   0.0029297
        k(   34) = (   0.0000000   0.2165064   0.2310251), wk =   0.0029297
        k(   35) = (   0.0000000   0.2165064   0.2695293), wk =   0.0029297
        k(   36) = (   0.0000000   0.2165064  -0.3080335), wk =   0.0014648
        k(   37) = (   0.0000000   0.2886751   0.0000000), wk =   0.0014648
        k(   38) = (   0.0000000   0.2886751   0.0385042), wk =   0.0029297
        k(   39) = (   0.0000000   0.2886751   0.0770084), wk =   0.0029297
        k(   40) = (   0.0000000   0.2886751   0.1155126), wk =   0.0029297
        k(   41) = (   0.0000000   0.2886751   0.1540168), wk =   0.0029297
        k(   42) = (   0.0000000   0.2886751   0.1925209), wk =   0.0029297
        k(   43) = (   0.0000000   0.2886751   0.2310251), wk =   0.0029297
        k(   44) = (   0.0000000   0.2886751   0.2695293), wk =   0.0029297
        k(   45) = (   0.0000000   0.2886751  -0.3080335), wk =   0.0014648
        k(   46) = (   0.0000000   0.3608439   0.0000000), wk =   0.0014648
        k(   47) = (   0.0000000   0.3608439   0.0385042), wk =   0.0029297
        k(   48) = (   0.0000000   0.3608439   0.0770084), wk =   0.0029297
        k(   49) = (   0.0000000   0.3608439   0.1155126), wk =   0.0029297
        k(   50) = (   0.0000000   0.3608439   0.1540168), wk =   0.0029297
        k(   51) = (   0.0000000   0.3608439   0.1925209), wk =   0.0029297
        k(   52) = (   0.0000000   0.3608439   0.2310251), wk =   0.0029297
        k(   53) = (   0.0000000   0.3608439   0.2695293), wk =   0.0029297
        k(   54) = (   0.0000000   0.3608439  -0.3080335), wk =   0.0014648
        k(   55) = (   0.0000000   0.4330127   0.0000000), wk =   0.0014648
        k(   56) = (   0.0000000   0.4330127   0.0385042), wk =   0.0029297
        k(   57) = (   0.0000000   0.4330127   0.0770084), wk =   0.0029297
        k(   58) = (   0.0000000   0.4330127   0.1155126), wk =   0.0029297
        k(   59) = (   0.0000000   0.4330127   0.1540168), wk =   0.0029297
        k(   60) = (   0.0000000   0.4330127   0.1925209), wk =   0.0029297
        k(   61) = (   0.0000000   0.4330127   0.2310251), wk =   0.0029297
        k(   62) = (   0.0000000   0.4330127   0.2695293), wk =   0.0029297
        k(   63) = (   0.0000000   0.4330127  -0.3080335), wk =   0.0014648
        k(   64) = (   0.0000000   0.5051815   0.0000000), wk =   0.0014648
        k(   65) = (   0.0000000   0.5051815   0.0385042), wk =   0.0029297
        k(   66) = (   0.0000000   0.5051815   0.0770084), wk =   0.0029297
        k(   67) = (   0.0000000   0.5051815   0.1155126), wk =   0.0029297
        k(   68) = (   0.0000000   0.5051815   0.1540168), wk =   0.0029297
        k(   69) = (   0.0000000   0.5051815   0.1925209), wk =   0.0029297
        k(   70) = (   0.0000000   0.5051815   0.2310251), wk =   0.0029297
        k(   71) = (   0.0000000   0.5051815   0.2695293), wk =   0.0029297
        k(   72) = (   0.0000000   0.5051815  -0.3080335), wk =   0.0014648
        k(   73) = (   0.0000000  -0.5773503   0.0000000), wk =   0.0007324
        k(   74) = (   0.0000000  -0.5773503   0.0385042), wk =   0.0014648
        k(   75) = (   0.0000000  -0.5773503   0.0770084), wk =   0.0014648
        k(   76) = (   0.0000000  -0.5773503   0.1155126), wk =   0.0014648
        k(   77) = (   0.0000000  -0.5773503   0.1540168), wk =   0.0014648
        k(   78) = (   0.0000000  -0.5773503   0.1925209), wk =   0.0014648
        k(   79) = (   0.0000000  -0.5773503   0.2310251), wk =   0.0014648
        k(   80) = (   0.0000000  -0.5773503   0.2695293), wk =   0.0014648
        k(   81) = (   0.0000000  -0.5773503  -0.3080335), wk =   0.0007324
        k(   82) = (   0.0625000   0.1082532   0.0000000), wk =   0.0014648
        k(   83) = (   0.0625000   0.1082532   0.0385042), wk =   0.0029297
        k(   84) = (   0.0625000   0.1082532   0.0770084), wk =   0.0029297
        k(   85) = (   0.0625000   0.1082532   0.1155126), wk =   0.0029297
        k(   86) = (   0.0625000   0.1082532   0.1540168), wk =   0.0029297
        k(   87) = (   0.0625000   0.1082532   0.1925209), wk =   0.0029297
        k(   88) = (   0.0625000   0.1082532   0.2310251), wk =   0.0029297
        k(   89) = (   0.0625000   0.1082532   0.2695293), wk =   0.0029297
        k(   90) = (   0.0625000   0.1082532  -0.3080335), wk =   0.0014648
        k(   91) = (   0.0625000   0.1804220   0.0000000), wk =   0.0029297
        k(   92) = (   0.0625000   0.1804220   0.0385042), wk =   0.0058594
        k(   93) = (   0.0625000   0.1804220   0.0770084), wk =   0.0058594
        k(   94) = (   0.0625000   0.1804220   0.1155126), wk =   0.0058594
        k(   95) = (   0.0625000   0.1804220   0.1540168), wk =   0.0058594
        k(   96) = (   0.0625000   0.1804220   0.1925209), wk =   0.0058594
        k(   97) = (   0.0625000   0.1804220   0.2310251), wk =   0.0058594
        k(   98) = (   0.0625000   0.1804220   0.2695293), wk =   0.0058594
        k(   99) = (   0.0625000   0.1804220  -0.3080335), wk =   0.0029297
        k(  100) = (   0.0625000   0.2525907   0.0000000), wk =   0.0029297
        k(  101) = (   0.0625000   0.2525907   0.0385042), wk =   0.0058594
        k(  102) = (   0.0625000   0.2525907   0.0770084), wk =   0.0058594
        k(  103) = (   0.0625000   0.2525907   0.1155126), wk =   0.0058594
        k(  104) = (   0.0625000   0.2525907   0.1540168), wk =   0.0058594
        k(  105) = (   0.0625000   0.2525907   0.1925209), wk =   0.0058594
        k(  106) = (   0.0625000   0.2525907   0.2310251), wk =   0.0058594
        k(  107) = (   0.0625000   0.2525907   0.2695293), wk =   0.0058594
        k(  108) = (   0.0625000   0.2525907  -0.3080335), wk =   0.0029297
        k(  109) = (   0.0625000   0.3247595   0.0000000), wk =   0.0029297
        k(  110) = (   0.0625000   0.3247595   0.0385042), wk =   0.0058594
        k(  111) = (   0.0625000   0.3247595   0.0770084), wk =   0.0058594
        k(  112) = (   0.0625000   0.3247595   0.1155126), wk =   0.0058594
        k(  113) = (   0.0625000   0.3247595   0.1540168), wk =   0.0058594
        k(  114) = (   0.0625000   0.3247595   0.1925209), wk =   0.0058594
        k(  115) = (   0.0625000   0.3247595   0.2310251), wk =   0.0058594
        k(  116) = (   0.0625000   0.3247595   0.2695293), wk =   0.0058594
        k(  117) = (   0.0625000   0.3247595  -0.3080335), wk =   0.0029297
        k(  118) = (   0.0625000   0.3969283   0.0000000), wk =   0.0029297
        k(  119) = (   0.0625000   0.3969283   0.0385042), wk =   0.0058594
        k(  120) = (   0.0625000   0.3969283   0.0770084), wk =   0.0058594
        k(  121) = (   0.0625000   0.3969283   0.1155126), wk =   0.0058594
        k(  122) = (   0.0625000   0.3969283   0.1540168), wk =   0.0058594
        k(  123) = (   0.0625000   0.3969283   0.1925209), wk =   0.0058594
        k(  124) = (   0.0625000   0.3969283   0.2310251), wk =   0.0058594
        k(  125) = (   0.0625000   0.3969283   0.2695293), wk =   0.0058594
        k(  126) = (   0.0625000   0.3969283  -0.3080335), wk =   0.0029297
        k(  127) = (   0.0625000   0.4690971   0.0000000), wk =   0.0029297
        k(  128) = (   0.0625000   0.4690971   0.0385042), wk =   0.0058594
        k(  129) = (   0.0625000   0.4690971   0.0770084), wk =   0.0058594
        k(  130) = (   0.0625000   0.4690971   0.1155126), wk =   0.0058594
        k(  131) = (   0.0625000   0.4690971   0.1540168), wk =   0.0058594
        k(  132) = (   0.0625000   0.4690971   0.1925209), wk =   0.0058594
        k(  133) = (   0.0625000   0.4690971   0.2310251), wk =   0.0058594
        k(  134) = (   0.0625000   0.4690971   0.2695293), wk =   0.0058594
        k(  135) = (   0.0625000   0.4690971  -0.3080335), wk =   0.0029297
        k(  136) = (   0.0625000   0.5412659   0.0000000), wk =   0.0029297
        k(  137) = (   0.0625000   0.5412659   0.0385042), wk =   0.0058594
        k(  138) = (   0.0625000   0.5412659   0.0770084), wk =   0.0058594
        k(  139) = (   0.0625000   0.5412659   0.1155126), wk =   0.0058594
        k(  140) = (   0.0625000   0.5412659   0.1540168), wk =   0.0058594
        k(  141) = (   0.0625000   0.5412659   0.1925209), wk =   0.0058594
        k(  142) = (   0.0625000   0.5412659   0.2310251), wk =   0.0058594
        k(  143) = (   0.0625000   0.5412659   0.2695293), wk =   0.0058594
        k(  144) = (   0.0625000   0.5412659  -0.3080335), wk =   0.0029297
        k(  145) = (   0.1250000   0.2165064   0.0000000), wk =   0.0014648
        k(  146) = (   0.1250000   0.2165064   0.0385042), wk =   0.0029297
        k(  147) = (   0.1250000   0.2165064   0.0770084), wk =   0.0029297
        k(  148) = (   0.1250000   0.2165064   0.1155126), wk =   0.0029297
        k(  149) = (   0.1250000   0.2165064   0.1540168), wk =   0.0029297
        k(  150) = (   0.1250000   0.2165064   0.1925209), wk =   0.0029297
        k(  151) = (   0.1250000   0.2165064   0.2310251), wk =   0.0029297
        k(  152) = (   0.1250000   0.2165064   0.2695293), wk =   0.0029297
        k(  153) = (   0.1250000   0.2165064  -0.3080335), wk =   0.0014648
        k(  154) = (   0.1250000   0.2886751   0.0000000), wk =   0.0029297
        k(  155) = (   0.1250000   0.2886751   0.0385042), wk =   0.0058594
        k(  156) = (   0.1250000   0.2886751   0.0770084), wk =   0.0058594
        k(  157) = (   0.1250000   0.2886751   0.1155126), wk =   0.0058594
        k(  158) = (   0.1250000   0.2886751   0.1540168), wk =   0.0058594
        k(  159) = (   0.1250000   0.2886751   0.1925209), wk =   0.0058594
        k(  160) = (   0.1250000   0.2886751   0.2310251), wk =   0.0058594
        k(  161) = (   0.1250000   0.2886751   0.2695293), wk =   0.0058594
        k(  162) = (   0.1250000   0.2886751  -0.3080335), wk =   0.0029297
        k(  163) = (   0.1250000   0.3608439   0.0000000), wk =   0.0029297
        k(  164) = (   0.1250000   0.3608439   0.0385042), wk =   0.0058594
        k(  165) = (   0.1250000   0.3608439   0.0770084), wk =   0.0058594
        k(  166) = (   0.1250000   0.3608439   0.1155126), wk =   0.0058594
        k(  167) = (   0.1250000   0.3608439   0.1540168), wk =   0.0058594
        k(  168) = (   0.1250000   0.3608439   0.1925209), wk =   0.0058594
        k(  169) = (   0.1250000   0.3608439   0.2310251), wk =   0.0058594
        k(  170) = (   0.1250000   0.3608439   0.2695293), wk =   0.0058594
        k(  171) = (   0.1250000   0.3608439  -0.3080335), wk =   0.0029297
        k(  172) = (   0.1250000   0.4330127   0.0000000), wk =   0.0029297
        k(  173) = (   0.1250000   0.4330127   0.0385042), wk =   0.0058594
        k(  174) = (   0.1250000   0.4330127   0.0770084), wk =   0.0058594
        k(  175) = (   0.1250000   0.4330127   0.1155126), wk =   0.0058594
        k(  176) = (   0.1250000   0.4330127   0.1540168), wk =   0.0058594
        k(  177) = (   0.1250000   0.4330127   0.1925209), wk =   0.0058594
        k(  178) = (   0.1250000   0.4330127   0.2310251), wk =   0.0058594
        k(  179) = (   0.1250000   0.4330127   0.2695293), wk =   0.0058594
        k(  180) = (   0.1250000   0.4330127  -0.3080335), wk =   0.0029297
        k(  181) = (   0.1250000   0.5051815   0.0000000), wk =   0.0029297
        k(  182) = (   0.1250000   0.5051815   0.0385042), wk =   0.0058594
        k(  183) = (   0.1250000   0.5051815   0.0770084), wk =   0.0058594
        k(  184) = (   0.1250000   0.5051815   0.1155126), wk =   0.0058594
        k(  185) = (   0.1250000   0.5051815   0.1540168), wk =   0.0058594
        k(  186) = (   0.1250000   0.5051815   0.1925209), wk =   0.0058594
        k(  187) = (   0.1250000   0.5051815   0.2310251), wk =   0.0058594
        k(  188) = (   0.1250000   0.5051815   0.2695293), wk =   0.0058594
        k(  189) = (   0.1250000   0.5051815  -0.3080335), wk =   0.0029297
        k(  190) = (   0.1250000   0.5773503   0.0000000), wk =   0.0014648
        k(  191) = (   0.1250000   0.5773503   0.0385042), wk =   0.0029297
        k(  192) = (   0.1250000   0.5773503   0.0770084), wk =   0.0029297
        k(  193) = (   0.1250000   0.5773503   0.1155126), wk =   0.0029297
        k(  194) = (   0.1250000   0.5773503   0.1540168), wk =   0.0029297
        k(  195) = (   0.1250000   0.5773503   0.1925209), wk =   0.0029297
        k(  196) = (   0.1250000   0.5773503   0.2310251), wk =   0.0029297
        k(  197) = (   0.1250000   0.5773503   0.2695293), wk =   0.0029297
        k(  198) = (   0.1250000   0.5773503  -0.3080335), wk =   0.0014648
        k(  199) = (   0.1875000   0.3247595   0.0000000), wk =   0.0014648
        k(  200) = (   0.1875000   0.3247595   0.0385042), wk =   0.0029297
        k(  201) = (   0.1875000   0.3247595   0.0770084), wk =   0.0029297
        k(  202) = (   0.1875000   0.3247595   0.1155126), wk =   0.0029297
        k(  203) = (   0.1875000   0.3247595   0.1540168), wk =   0.0029297
        k(  204) = (   0.1875000   0.3247595   0.1925209), wk =   0.0029297
        k(  205) = (   0.1875000   0.3247595   0.2310251), wk =   0.0029297
        k(  206) = (   0.1875000   0.3247595   0.2695293), wk =   0.0029297
        k(  207) = (   0.1875000   0.3247595  -0.3080335), wk =   0.0014648
        k(  208) = (   0.1875000   0.3969283   0.0000000), wk =   0.0029297
        k(  209) = (   0.1875000   0.3969283   0.0385042), wk =   0.0058594
        k(  210) = (   0.1875000   0.3969283   0.0770084), wk =   0.0058594
        k(  211) = (   0.1875000   0.3969283   0.1155126), wk =   0.0058594
        k(  212) = (   0.1875000   0.3969283   0.1540168), wk =   0.0058594
        k(  213) = (   0.1875000   0.3969283   0.1925209), wk =   0.0058594
        k(  214) = (   0.1875000   0.3969283   0.2310251), wk =   0.0058594
        k(  215) = (   0.1875000   0.3969283   0.2695293), wk =   0.0058594
        k(  216) = (   0.1875000   0.3969283  -0.3080335), wk =   0.0029297
        k(  217) = (   0.1875000   0.4690971   0.0000000), wk =   0.0029297
        k(  218) = (   0.1875000   0.4690971   0.0385042), wk =   0.0058594
        k(  219) = (   0.1875000   0.4690971   0.0770084), wk =   0.0058594
        k(  220) = (   0.1875000   0.4690971   0.1155126), wk =   0.0058594
        k(  221) = (   0.1875000   0.4690971   0.1540168), wk =   0.0058594
        k(  222) = (   0.1875000   0.4690971   0.1925209), wk =   0.0058594
        k(  223) = (   0.1875000   0.4690971   0.2310251), wk =   0.0058594
        k(  224) = (   0.1875000   0.4690971   0.2695293), wk =   0.0058594
        k(  225) = (   0.1875000   0.4690971  -0.3080335), wk =   0.0029297
        k(  226) = (   0.1875000   0.5412659   0.0000000), wk =   0.0029297
        k(  227) = (   0.1875000   0.5412659   0.0385042), wk =   0.0058594
        k(  228) = (   0.1875000   0.5412659   0.0770084), wk =   0.0058594
        k(  229) = (   0.1875000   0.5412659   0.1155126), wk =   0.0058594
        k(  230) = (   0.1875000   0.5412659   0.1540168), wk =   0.0058594
        k(  231) = (   0.1875000   0.5412659   0.1925209), wk =   0.0058594
        k(  232) = (   0.1875000   0.5412659   0.2310251), wk =   0.0058594
        k(  233) = (   0.1875000   0.5412659   0.2695293), wk =   0.0058594
        k(  234) = (   0.1875000   0.5412659  -0.3080335), wk =   0.0029297
        k(  235) = (   0.2500000   0.4330127   0.0000000), wk =   0.0014648
        k(  236) = (   0.2500000   0.4330127   0.0385042), wk =   0.0029297
        k(  237) = (   0.2500000   0.4330127   0.0770084), wk =   0.0029297
        k(  238) = (   0.2500000   0.4330127   0.1155126), wk =   0.0029297
        k(  239) = (   0.2500000   0.4330127   0.1540168), wk =   0.0029297
        k(  240) = (   0.2500000   0.4330127   0.1925209), wk =   0.0029297
        k(  241) = (   0.2500000   0.4330127   0.2310251), wk =   0.0029297
        k(  242) = (   0.2500000   0.4330127   0.2695293), wk =   0.0029297
        k(  243) = (   0.2500000   0.4330127  -0.3080335), wk =   0.0014648
        k(  244) = (   0.2500000   0.5051815   0.0000000), wk =   0.0029297
        k(  245) = (   0.2500000   0.5051815   0.0385042), wk =   0.0058594
        k(  246) = (   0.2500000   0.5051815   0.0770084), wk =   0.0058594
        k(  247) = (   0.2500000   0.5051815   0.1155126), wk =   0.0058594
        k(  248) = (   0.2500000   0.5051815   0.1540168), wk =   0.0058594
        k(  249) = (   0.2500000   0.5051815   0.1925209), wk =   0.0058594
        k(  250) = (   0.2500000   0.5051815   0.2310251), wk =   0.0058594
        k(  251) = (   0.2500000   0.5051815   0.2695293), wk =   0.0058594
        k(  252) = (   0.2500000   0.5051815  -0.3080335), wk =   0.0029297
        k(  253) = (   0.2500000   0.5773503   0.0000000), wk =   0.0014648
        k(  254) = (   0.2500000   0.5773503   0.0385042), wk =   0.0029297
        k(  255) = (   0.2500000   0.5773503   0.0770084), wk =   0.0029297
        k(  256) = (   0.2500000   0.5773503   0.1155126), wk =   0.0029297
        k(  257) = (   0.2500000   0.5773503   0.1540168), wk =   0.0029297
        k(  258) = (   0.2500000   0.5773503   0.1925209), wk =   0.0029297
        k(  259) = (   0.2500000   0.5773503   0.2310251), wk =   0.0029297
        k(  260) = (   0.2500000   0.5773503   0.2695293), wk =   0.0029297
        k(  261) = (   0.2500000   0.5773503  -0.3080335), wk =   0.0014648
        k(  262) = (   0.3125000   0.5412659   0.0000000), wk =   0.0014648
        k(  263) = (   0.3125000   0.5412659   0.0385042), wk =   0.0029297
        k(  264) = (   0.3125000   0.5412659   0.0770084), wk =   0.0029297
        k(  265) = (   0.3125000   0.5412659   0.1155126), wk =   0.0029297
        k(  266) = (   0.3125000   0.5412659   0.1540168), wk =   0.0029297
        k(  267) = (   0.3125000   0.5412659   0.1925209), wk =   0.0029297
        k(  268) = (   0.3125000   0.5412659   0.2310251), wk =   0.0029297
        k(  269) = (   0.3125000   0.5412659   0.2695293), wk =   0.0029297
        k(  270) = (   0.3125000   0.5412659  -0.3080335), wk =   0.0014648

                       cryst. coord.
        k(    1) = (   0.0000000   0.0000000   0.0000000), wk =   0.0002441
        k(    2) = (   0.0000000   0.0000000   0.0625000), wk =   0.0004883
        k(    3) = (   0.0000000   0.0000000   0.1250000), wk =   0.0004883
        k(    4) = (   0.0000000   0.0000000   0.1875000), wk =   0.0004883
        k(    5) = (   0.0000000   0.0000000   0.2500000), wk =   0.0004883
        k(    6) = (   0.0000000   0.0000000   0.3125000), wk =   0.0004883
        k(    7) = (   0.0000000   0.0000000   0.3750000), wk =   0.0004883
        k(    8) = (   0.0000000   0.0000000   0.4375000), wk =   0.0004883
        k(    9) = (   0.0000000   0.0000000  -0.5000000), wk =   0.0002441
        k(   10) = (   0.0000000   0.0625000   0.0000000), wk =   0.0014648
        k(   11) = (   0.0000000   0.0625000   0.0625000), wk =   0.0029297
        k(   12) = (   0.0000000   0.0625000   0.1250000), wk =   0.0029297
        k(   13) = (   0.0000000   0.0625000   0.1875000), wk =   0.0029297
        k(   14) = (   0.0000000   0.0625000   0.2500000), wk =   0.0029297
        k(   15) = (   0.0000000   0.0625000   0.3125000), wk =   0.0029297
        k(   16) = (   0.0000000   0.0625000   0.3750000), wk =   0.0029297
        k(   17) = (   0.0000000   0.0625000   0.4375000), wk =   0.0029297
        k(   18) = (   0.0000000   0.0625000  -0.5000000), wk =   0.0014648
        k(   19) = (   0.0000000   0.1250000   0.0000000), wk =   0.0014648
        k(   20) = (   0.0000000   0.1250000   0.0625000), wk =   0.0029297
        k(   21) = (   0.0000000   0.1250000   0.1250000), wk =   0.0029297
        k(   22) = (   0.0000000   0.1250000   0.1875000), wk =   0.0029297
        k(   23) = (   0.0000000   0.1250000   0.2500000), wk =   0.0029297
        k(   24) = (   0.0000000   0.1250000   0.3125000), wk =   0.0029297
        k(   25) = (   0.0000000   0.1250000   0.3750000), wk =   0.0029297
        k(   26) = (   0.0000000   0.1250000   0.4375000), wk =   0.0029297
        k(   27) = (   0.0000000   0.1250000  -0.5000000), wk =   0.0014648
        k(   28) = (   0.0000000   0.1875000   0.0000000), wk =   0.0014648
        k(   29) = (   0.0000000   0.1875000   0.0625000), wk =   0.0029297
        k(   30) = (   0.0000000   0.1875000   0.1250000), wk =   0.0029297
        k(   31) = (   0.0000000   0.1875000   0.1875000), wk =   0.0029297
        k(   32) = (   0.0000000   0.1875000   0.2500000), wk =   0.0029297
        k(   33) = (   0.0000000   0.1875000   0.3125000), wk =   0.0029297
        k(   34) = (   0.0000000   0.1875000   0.3750000), wk =   0.0029297
        k(   35) = (   0.0000000   0.1875000   0.4375000), wk =   0.0029297
        k(   36) = (   0.0000000   0.1875000  -0.5000000), wk =   0.0014648
        k(   37) = (   0.0000000   0.2500000   0.0000000), wk =   0.0014648
        k(   38) = (   0.0000000   0.2500000   0.0625000), wk =   0.0029297
        k(   39) = (   0.0000000   0.2500000   0.1250000), wk =   0.0029297
        k(   40) = (   0.0000000   0.2500000   0.1875000), wk =   0.0029297
        k(   41) = (   0.0000000   0.2500000   0.2500000), wk =   0.0029297
        k(   42) = (   0.0000000   0.2500000   0.3125000), wk =   0.0029297
        k(   43) = (   0.0000000   0.2500000   0.3750000), wk =   0.0029297
        k(   44) = (   0.0000000   0.2500000   0.4375000), wk =   0.0029297
        k(   45) = (   0.0000000   0.2500000  -0.5000000), wk =   0.0014648
        k(   46) = (   0.0000000   0.3125000   0.0000000), wk =   0.0014648
        k(   47) = (   0.0000000   0.3125000   0.0625000), wk =   0.0029297
        k(   48) = (   0.0000000   0.3125000   0.1250000), wk =   0.0029297
        k(   49) = (   0.0000000   0.3125000   0.1875000), wk =   0.0029297
        k(   50) = (   0.0000000   0.3125000   0.2500000), wk =   0.0029297
        k(   51) = (   0.0000000   0.3125000   0.3125000), wk =   0.0029297
        k(   52) = (   0.0000000   0.3125000   0.3750000), wk =   0.0029297
        k(   53) = (   0.0000000   0.3125000   0.4375000), wk =   0.0029297
        k(   54) = (   0.0000000   0.3125000  -0.5000000), wk =   0.0014648
        k(   55) = (   0.0000000   0.3750000   0.0000000), wk =   0.0014648
        k(   56) = (   0.0000000   0.3750000   0.0625000), wk =   0.0029297
        k(   57) = (   0.0000000   0.3750000   0.1250000), wk =   0.0029297
        k(   58) = (   0.0000000   0.3750000   0.1875000), wk =   0.0029297
        k(   59) = (   0.0000000   0.3750000   0.2500000), wk =   0.0029297
        k(   60) = (   0.0000000   0.3750000   0.3125000), wk =   0.0029297
        k(   61) = (   0.0000000   0.3750000   0.3750000), wk =   0.0029297
        k(   62) = (   0.0000000   0.3750000   0.4375000), wk =   0.0029297
        k(   63) = (   0.0000000   0.3750000  -0.5000000), wk =   0.0014648
        k(   64) = (   0.0000000   0.4375000   0.0000000), wk =   0.0014648
        k(   65) = (   0.0000000   0.4375000   0.0625000), wk =   0.0029297
        k(   66) = (   0.0000000   0.4375000   0.1250000), wk =   0.0029297
        k(   67) = (   0.0000000   0.4375000   0.1875000), wk =   0.0029297
        k(   68) = (   0.0000000   0.4375000   0.2500000), wk =   0.0029297
        k(   69) = (   0.0000000   0.4375000   0.3125000), wk =   0.0029297
        k(   70) = (   0.0000000   0.4375000   0.3750000), wk =   0.0029297
        k(   71) = (   0.0000000   0.4375000   0.4375000), wk =   0.0029297
        k(   72) = (   0.0000000   0.4375000  -0.5000000), wk =   0.0014648
        k(   73) = (   0.0000000  -0.5000000   0.0000000), wk =   0.0007324
        k(   74) = (   0.0000000  -0.5000000   0.0625000), wk =   0.0014648
        k(   75) = (   0.0000000  -0.5000000   0.1250000), wk =   0.0014648
        k(   76) = (   0.0000000  -0.5000000   0.1875000), wk =   0.0014648
        k(   77) = (   0.0000000  -0.5000000   0.2500000), wk =   0.0014648
        k(   78) = (   0.0000000  -0.5000000   0.3125000), wk =   0.0014648
        k(   79) = (   0.0000000  -0.5000000   0.3750000), wk =   0.0014648
        k(   80) = (   0.0000000  -0.5000000   0.4375000), wk =   0.0014648
        k(   81) = (   0.0000000  -0.5000000  -0.5000000), wk =   0.0007324
        k(   82) = (   0.0625000   0.0625000   0.0000000), wk =   0.0014648
        k(   83) = (   0.0625000   0.0625000   0.0625000), wk =   0.0029297
        k(   84) = (   0.0625000   0.0625000   0.1250000), wk =   0.0029297
        k(   85) = (   0.0625000   0.0625000   0.1875000), wk =   0.0029297
        k(   86) = (   0.0625000   0.0625000   0.2500000), wk =   0.0029297
        k(   87) = (   0.0625000   0.0625000   0.3125000), wk =   0.0029297
        k(   88) = (   0.0625000   0.0625000   0.3750000), wk =   0.0029297
        k(   89) = (   0.0625000   0.0625000   0.4375000), wk =   0.0029297
        k(   90) = (   0.0625000   0.0625000  -0.5000000), wk =   0.0014648
        k(   91) = (   0.0625000   0.1250000   0.0000000), wk =   0.0029297
        k(   92) = (   0.0625000   0.1250000   0.0625000), wk =   0.0058594
        k(   93) = (   0.0625000   0.1250000   0.1250000), wk =   0.0058594
        k(   94) = (   0.0625000   0.1250000   0.1875000), wk =   0.0058594
        k(   95) = (   0.0625000   0.1250000   0.2500000), wk =   0.0058594
        k(   96) = (   0.0625000   0.1250000   0.3125000), wk =   0.0058594
        k(   97) = (   0.0625000   0.1250000   0.3750000), wk =   0.0058594
        k(   98) = (   0.0625000   0.1250000   0.4375000), wk =   0.0058594
        k(   99) = (   0.0625000   0.1250000  -0.5000000), wk =   0.0029297
        k(  100) = (   0.0625000   0.1875000   0.0000000), wk =   0.0029297
        k(  101) = (   0.0625000   0.1875000   0.0625000), wk =   0.0058594
        k(  102) = (   0.0625000   0.1875000   0.1250000), wk =   0.0058594
        k(  103) = (   0.0625000   0.1875000   0.1875000), wk =   0.0058594
        k(  104) = (   0.0625000   0.1875000   0.2500000), wk =   0.0058594
        k(  105) = (   0.0625000   0.1875000   0.3125000), wk =   0.0058594
        k(  106) = (   0.0625000   0.1875000   0.3750000), wk =   0.0058594
        k(  107) = (   0.0625000   0.1875000   0.4375000), wk =   0.0058594
        k(  108) = (   0.0625000   0.1875000  -0.5000000), wk =   0.0029297
        k(  109) = (   0.0625000   0.2500000   0.0000000), wk =   0.0029297
        k(  110) = (   0.0625000   0.2500000   0.0625000), wk =   0.0058594
        k(  111) = (   0.0625000   0.2500000   0.1250000), wk =   0.0058594
        k(  112) = (   0.0625000   0.2500000   0.1875000), wk =   0.0058594
        k(  113) = (   0.0625000   0.2500000   0.2500000), wk =   0.0058594
        k(  114) = (   0.0625000   0.2500000   0.3125000), wk =   0.0058594
        k(  115) = (   0.0625000   0.2500000   0.3750000), wk =   0.0058594
        k(  116) = (   0.0625000   0.2500000   0.4375000), wk =   0.0058594
        k(  117) = (   0.0625000   0.2500000  -0.5000000), wk =   0.0029297
        k(  118) = (   0.0625000   0.3125000   0.0000000), wk =   0.0029297
        k(  119) = (   0.0625000   0.3125000   0.0625000), wk =   0.0058594
        k(  120) = (   0.0625000   0.3125000   0.1250000), wk =   0.0058594
        k(  121) = (   0.0625000   0.3125000   0.1875000), wk =   0.0058594
        k(  122) = (   0.0625000   0.3125000   0.2500000), wk =   0.0058594
        k(  123) = (   0.0625000   0.3125000   0.3125000), wk =   0.0058594
        k(  124) = (   0.0625000   0.3125000   0.3750000), wk =   0.0058594
        k(  125) = (   0.0625000   0.3125000   0.4375000), wk =   0.0058594
        k(  126) = (   0.0625000   0.3125000  -0.5000000), wk =   0.0029297
        k(  127) = (   0.0625000   0.3750000   0.0000000), wk =   0.0029297
        k(  128) = (   0.0625000   0.3750000   0.0625000), wk =   0.0058594
        k(  129) = (   0.0625000   0.3750000   0.1250000), wk =   0.0058594
        k(  130) = (   0.0625000   0.3750000   0.1875000), wk =   0.0058594
        k(  131) = (   0.0625000   0.3750000   0.2500000), wk =   0.0058594
        k(  132) = (   0.0625000   0.3750000   0.3125000), wk =   0.0058594
        k(  133) = (   0.0625000   0.3750000   0.3750000), wk =   0.0058594
        k(  134) = (   0.0625000   0.3750000   0.4375000), wk =   0.0058594
        k(  135) = (   0.0625000   0.3750000  -0.5000000), wk =   0.0029297
        k(  136) = (   0.0625000   0.4375000   0.0000000), wk =   0.0029297
        k(  137) = (   0.0625000   0.4375000   0.0625000), wk =   0.0058594
        k(  138) = (   0.0625000   0.4375000   0.1250000), wk =   0.0058594
        k(  139) = (   0.0625000   0.4375000   0.1875000), wk =   0.0058594
        k(  140) = (   0.0625000   0.4375000   0.2500000), wk =   0.0058594
        k(  141) = (   0.0625000   0.4375000   0.3125000), wk =   0.0058594
        k(  142) = (   0.0625000   0.4375000   0.3750000), wk =   0.0058594
        k(  143) = (   0.0625000   0.4375000   0.4375000), wk =   0.0058594
        k(  144) = (   0.0625000   0.4375000  -0.5000000), wk =   0.0029297
        k(  145) = (   0.1250000   0.1250000   0.0000000), wk =   0.0014648
        k(  146) = (   0.1250000   0.1250000   0.0625000), wk =   0.0029297
        k(  147) = (   0.1250000   0.1250000   0.1250000), wk =   0.0029297
        k(  148) = (   0.1250000   0.1250000   0.1875000), wk =   0.0029297
        k(  149) = (   0.1250000   0.1250000   0.2500000), wk =   0.0029297
        k(  150) = (   0.1250000   0.1250000   0.3125000), wk =   0.0029297
        k(  151) = (   0.1250000   0.1250000   0.3750000), wk =   0.0029297
        k(  152) = (   0.1250000   0.1250000   0.4375000), wk =   0.0029297
        k(  153) = (   0.1250000   0.1250000  -0.5000000), wk =   0.0014648
        k(  154) = (   0.1250000   0.1875000   0.0000000), wk =   0.0029297
        k(  155) = (   0.1250000   0.1875000   0.0625000), wk =   0.0058594
        k(  156) = (   0.1250000   0.1875000   0.1250000), wk =   0.0058594
        k(  157) = (   0.1250000   0.1875000   0.1875000), wk =   0.0058594
        k(  158) = (   0.1250000   0.1875000   0.2500000), wk =   0.0058594
        k(  159) = (   0.1250000   0.1875000   0.3125000), wk =   0.0058594
        k(  160) = (   0.1250000   0.1875000   0.3750000), wk =   0.0058594
        k(  161) = (   0.1250000   0.1875000   0.4375000), wk =   0.0058594
        k(  162) = (   0.1250000   0.1875000  -0.5000000), wk =   0.0029297
        k(  163) = (   0.1250000   0.2500000   0.0000000), wk =   0.0029297
        k(  164) = (   0.1250000   0.2500000   0.0625000), wk =   0.0058594
        k(  165) = (   0.1250000   0.2500000   0.1250000), wk =   0.0058594
        k(  166) = (   0.1250000   0.2500000   0.1875000), wk =   0.0058594
        k(  167) = (   0.1250000   0.2500000   0.2500000), wk =   0.0058594
        k(  168) = (   0.1250000   0.2500000   0.3125000), wk =   0.0058594
        k(  169) = (   0.1250000   0.2500000   0.3750000), wk =   0.0058594
        k(  170) = (   0.1250000   0.2500000   0.4375000), wk =   0.0058594
        k(  171) = (   0.1250000   0.2500000  -0.5000000), wk =   0.0029297
        k(  172) = (   0.1250000   0.3125000   0.0000000), wk =   0.0029297
        k(  173) = (   0.1250000   0.3125000   0.0625000), wk =   0.0058594
        k(  174) = (   0.1250000   0.3125000   0.1250000), wk =   0.0058594
        k(  175) = (   0.1250000   0.3125000   0.1875000), wk =   0.0058594
        k(  176) = (   0.1250000   0.3125000   0.2500000), wk =   0.0058594
        k(  177) = (   0.1250000   0.3125000   0.3125000), wk =   0.0058594
        k(  178) = (   0.1250000   0.3125000   0.3750000), wk =   0.0058594
        k(  179) = (   0.1250000   0.3125000   0.4375000), wk =   0.0058594
        k(  180) = (   0.1250000   0.3125000  -0.5000000), wk =   0.0029297
        k(  181) = (   0.1250000   0.3750000   0.0000000), wk =   0.0029297
        k(  182) = (   0.1250000   0.3750000   0.0625000), wk =   0.0058594
        k(  183) = (   0.1250000   0.3750000   0.1250000), wk =   0.0058594
        k(  184) = (   0.1250000   0.3750000   0.1875000), wk =   0.0058594
        k(  185) = (   0.1250000   0.3750000   0.2500000), wk =   0.0058594
        k(  186) = (   0.1250000   0.3750000   0.3125000), wk =   0.0058594
        k(  187) = (   0.1250000   0.3750000   0.3750000), wk =   0.0058594
        k(  188) = (   0.1250000   0.3750000   0.4375000), wk =   0.0058594
        k(  189) = (   0.1250000   0.3750000  -0.5000000), wk =   0.0029297
        k(  190) = (   0.1250000   0.4375000   0.0000000), wk =   0.0014648
        k(  191) = (   0.1250000   0.4375000   0.0625000), wk =   0.0029297
        k(  192) = (   0.1250000   0.4375000   0.1250000), wk =   0.0029297
        k(  193) = (   0.1250000   0.4375000   0.1875000), wk =   0.0029297
        k(  194) = (   0.1250000   0.4375000   0.2500000), wk =   0.0029297
        k(  195) = (   0.1250000   0.4375000   0.3125000), wk =   0.0029297
        k(  196) = (   0.1250000   0.4375000   0.3750000), wk =   0.0029297
        k(  197) = (   0.1250000   0.4375000   0.4375000), wk =   0.0029297
        k(  198) = (   0.1250000   0.4375000  -0.5000000), wk =   0.0014648
        k(  199) = (   0.1875000   0.1875000   0.0000000), wk =   0.0014648
        k(  200) = (   0.1875000   0.1875000   0.0625000), wk =   0.0029297
        k(  201) = (   0.1875000   0.1875000   0.1250000), wk =   0.0029297
        k(  202) = (   0.1875000   0.1875000   0.1875000), wk =   0.0029297
        k(  203) = (   0.1875000   0.1875000   0.2500000), wk =   0.0029297
        k(  204) = (   0.1875000   0.1875000   0.3125000), wk =   0.0029297
        k(  205) = (   0.1875000   0.1875000   0.3750000), wk =   0.0029297
        k(  206) = (   0.1875000   0.1875000   0.4375000), wk =   0.0029297
        k(  207) = (   0.1875000   0.1875000  -0.5000000), wk =   0.0014648
        k(  208) = (   0.1875000   0.2500000   0.0000000), wk =   0.0029297
        k(  209) = (   0.1875000   0.2500000   0.0625000), wk =   0.0058594
        k(  210) = (   0.1875000   0.2500000   0.1250000), wk =   0.0058594
        k(  211) = (   0.1875000   0.2500000   0.1875000), wk =   0.0058594
        k(  212) = (   0.1875000   0.2500000   0.2500000), wk =   0.0058594
        k(  213) = (   0.1875000   0.2500000   0.3125000), wk =   0.0058594
        k(  214) = (   0.1875000   0.2500000   0.3750000), wk =   0.0058594
        k(  215) = (   0.1875000   0.2500000   0.4375000), wk =   0.0058594
        k(  216) = (   0.1875000   0.2500000  -0.5000000), wk =   0.0029297
        k(  217) = (   0.1875000   0.3125000   0.0000000), wk =   0.0029297
        k(  218) = (   0.1875000   0.3125000   0.0625000), wk =   0.0058594
        k(  219) = (   0.1875000   0.3125000   0.1250000), wk =   0.0058594
        k(  220) = (   0.1875000   0.3125000   0.1875000), wk =   0.0058594
        k(  221) = (   0.1875000   0.3125000   0.2500000), wk =   0.0058594
        k(  222) = (   0.1875000   0.3125000   0.3125000), wk =   0.0058594
        k(  223) = (   0.1875000   0.3125000   0.3750000), wk =   0.0058594
        k(  224) = (   0.1875000   0.3125000   0.4375000), wk =   0.0058594
        k(  225) = (   0.1875000   0.3125000  -0.5000000), wk =   0.0029297
        k(  226) = (   0.1875000   0.3750000   0.0000000), wk =   0.0029297
        k(  227) = (   0.1875000   0.3750000   0.0625000), wk =   0.0058594
        k(  228) = (   0.1875000   0.3750000   0.1250000), wk =   0.0058594
        k(  229) = (   0.1875000   0.3750000   0.1875000), wk =   0.0058594
        k(  230) = (   0.1875000   0.3750000   0.2500000), wk =   0.0058594
        k(  231) = (   0.1875000   0.3750000   0.3125000), wk =   0.0058594
        k(  232) = (   0.1875000   0.3750000   0.3750000), wk =   0.0058594
        k(  233) = (   0.1875000   0.3750000   0.4375000), wk =   0.0058594
        k(  234) = (   0.1875000   0.3750000  -0.5000000), wk =   0.0029297
        k(  235) = (   0.2500000   0.2500000   0.0000000), wk =   0.0014648
        k(  236) = (   0.2500000   0.2500000   0.0625000), wk =   0.0029297
        k(  237) = (   0.2500000   0.2500000   0.1250000), wk =   0.0029297
        k(  238) = (   0.2500000   0.2500000   0.1875000), wk =   0.0029297
        k(  239) = (   0.2500000   0.2500000   0.2500000), wk =   0.0029297
        k(  240) = (   0.2500000   0.2500000   0.3125000), wk =   0.0029297
        k(  241) = (   0.2500000   0.2500000   0.3750000), wk =   0.0029297
        k(  242) = (   0.2500000   0.2500000   0.4375000), wk =   0.0029297
        k(  243) = (   0.2500000   0.2500000  -0.5000000), wk =   0.0014648
        k(  244) = (   0.2500000   0.3125000   0.0000000), wk =   0.0029297
        k(  245) = (   0.2500000   0.3125000   0.0625000), wk =   0.0058594
        k(  246) = (   0.2500000   0.3125000   0.1250000), wk =   0.0058594
        k(  247) = (   0.2500000   0.3125000   0.1875000), wk =   0.0058594
        k(  248) = (   0.2500000   0.3125000   0.2500000), wk =   0.0058594
        k(  249) = (   0.2500000   0.3125000   0.3125000), wk =   0.0058594
        k(  250) = (   0.2500000   0.3125000   0.3750000), wk =   0.0058594
        k(  251) = (   0.2500000   0.3125000   0.4375000), wk =   0.0058594
        k(  252) = (   0.2500000   0.3125000  -0.5000000), wk =   0.0029297
        k(  253) = (   0.2500000   0.3750000   0.0000000), wk =   0.0014648
        k(  254) = (   0.2500000   0.3750000   0.0625000), wk =   0.0029297
        k(  255) = (   0.2500000   0.3750000   0.1250000), wk =   0.0029297
        k(  256) = (   0.2500000   0.3750000   0.1875000), wk =   0.0029297
        k(  257) = (   0.2500000   0.3750000   0.2500000), wk =   0.0029297
        k(  258) = (   0.2500000   0.3750000   0.3125000), wk =   0.0029297
        k(  259) = (   0.2500000   0.3750000   0.3750000), wk =   0.0029297
        k(  260) = (   0.2500000   0.3750000   0.4375000), wk =   0.0029297
        k(  261) = (   0.2500000   0.3750000  -0.5000000), wk =   0.0014648
        k(  262) = (   0.3125000   0.3125000   0.0000000), wk =   0.0014648
        k(  263) = (   0.3125000   0.3125000   0.0625000), wk =   0.0029297
        k(  264) = (   0.3125000   0.3125000   0.1250000), wk =   0.0029297
        k(  265) = (   0.3125000   0.3125000   0.1875000), wk =   0.0029297
        k(  266) = (   0.3125000   0.3125000   0.2500000), wk =   0.0029297
        k(  267) = (   0.3125000   0.3125000   0.3125000), wk =   0.0029297
        k(  268) = (   0.3125000   0.3125000   0.3750000), wk =   0.0029297
        k(  269) = (   0.3125000   0.3125000   0.4375000), wk =   0.0029297
        k(  270) = (   0.3125000   0.3125000  -0.5000000), wk =   0.0014648

     Dense  grid:    17261 G-vectors     FFT dimensions: (  30,  30,  48)

     Dynamical RAM for                 wfc:       2.76 MB

     Dynamical RAM for     wfc (w. buffer):      16.57 MB

     Dynamical RAM for           str. fact:       0.26 MB

     Dynamical RAM for           local pot:       0.00 MB

     Dynamical RAM for          nlocal pot:       2.24 MB

     Dynamical RAM for                qrad:       3.99 MB

     Dynamical RAM for          rho,v,vnew:       7.12 MB

     Dynamical RAM for               rhoin:       2.37 MB

     Dynamical RAM for            rho*nmix:      16.86 MB

     Dynamical RAM for           G-vectors:       1.12 MB

     Dynamical RAM for          h,s,v(r/c):       0.32 MB

     Dynamical RAM for          <psi|beta>:       0.09 MB

     Dynamical RAM for                 psi:       5.52 MB

     Dynamical RAM for                hpsi:       5.52 MB

     Dynamical RAM for      wfcinit/wfcrot:       4.18 MB

     Estimated static dynamical RAM per process >      36.83 MB

     Estimated max dynamical RAM per process >      65.15 MB

     Estimated total dynamical RAM >       3.03 GB
     Generating pointlists ...
     new r_m :   0.4109 (alat units)  1.9465 (a.u.) for type    1

     Initial potential from superposition of free atoms

     starting charge      33.9250, renormalised to      34.0000

 ==============================================================================
     atom number    1 relative position :   -0.0000   0.5774   0.4058
     charge :    15.657073  (integrated on a sphere of radius 0.411)
     magnetization :          0.000000    0.000000   10.959951
     magnetization/charge:    0.000000    0.000000    0.700000
     polar coord.: r, theta, phi [deg] :    10.959951    0.000000  360.000000

 ==============================================================================

 ==============================================================================
     atom number    2 relative position :    0.5000   0.2887   1.2174
     charge :    15.657073  (integrated on a sphere of radius 0.411)
     magnetization :          0.000000    0.000000   10.959951
     magnetization/charge:    0.000000    0.000000    0.700000
     polar coord.: r, theta, phi [deg] :    10.959951    0.000000  360.000000

 ==============================================================================
     Starting wfcs are random

     total cpu time spent up to now is        0.9 secs

     Self-consistent Calculation

     iteration #  1     ecut=    90.00 Ry     beta= 0.70
     Davidson diagonalization with overlap

---- Real-time Memory Report at c_bands before calling an iterative solver
            75 MiB given to the printing process from OS
             0 MiB allocation reported by mallinfo(arena+hblkhd)
         82214 MiB available memory on the node where the printing process lives
------------------
     ethr =  1.00E-02,  avg # of iterations = 11.8

     total cpu time spent up to now is        7.7 secs

     total energy              =    -541.13788598 Ry
     estimated scf accuracy    <       4.05110444 Ry

     total magnetization       =     0.00    -0.00     6.21 Bohr mag/cell
     absolute magnetization    =     6.50 Bohr mag/cell

     iteration #  2     ecut=    90.00 Ry     beta= 0.70
     Davidson diagonalization with overlap

---- Real-time Memory Report at c_bands before calling an iterative solver
           106 MiB given to the printing process from OS
             0 MiB allocation reported by mallinfo(arena+hblkhd)
         81434 MiB available memory on the node where the printing process lives
------------------
     ethr =  1.00E-02,  avg # of iterations =  2.4

     total cpu time spent up to now is        9.9 secs

     total energy              =    -541.70502121 Ry
     estimated scf accuracy    <       1.11551152 Ry

     total magnetization       =     0.00     0.00     4.15 Bohr mag/cell
     absolute magnetization    =     4.73 Bohr mag/cell

     iteration #  3     ecut=    90.00 Ry     beta= 0.70
     Davidson diagonalization with overlap

---- Real-time Memory Report at c_bands before calling an iterative solver
           112 MiB given to the printing process from OS
             0 MiB allocation reported by mallinfo(arena+hblkhd)
         81423 MiB available memory on the node where the printing process lives
------------------
     ethr =  3.28E-03,  avg # of iterations =  2.1

     total cpu time spent up to now is       12.1 secs

     total energy              =    -541.90567759 Ry
     estimated scf accuracy    <       0.38082863 Ry

     total magnetization       =     0.00    -0.00     4.04 Bohr mag/cell
     absolute magnetization    =     4.52 Bohr mag/cell

     iteration #  4     ecut=    90.00 Ry     beta= 0.70
     Davidson diagonalization with overlap

---- Real-time Memory Report at c_bands before calling an iterative solver
           117 MiB given to the printing process from OS
             0 MiB allocation reported by mallinfo(arena+hblkhd)
         81434 MiB available memory on the node where the printing process lives
------------------
     ethr =  1.12E-03,  avg # of iterations =  2.4

     total cpu time spent up to now is       14.2 secs

     total energy              =    -541.97666487 Ry
     estimated scf accuracy    <       0.00263745 Ry

     total magnetization       =    -0.00    -0.00     3.33 Bohr mag/cell
     absolute magnetization    =     3.85 Bohr mag/cell

     iteration #  5     ecut=    90.00 Ry     beta= 0.70
     Davidson diagonalization with overlap

---- Real-time Memory Report at c_bands before calling an iterative solver
           121 MiB given to the printing process from OS
             0 MiB allocation reported by mallinfo(arena+hblkhd)
         81446 MiB available memory on the node where the printing process lives
------------------
     ethr =  7.76E-06,  avg # of iterations =  5.1

     total cpu time spent up to now is       17.4 secs

     total energy              =    -541.97907250 Ry
     estimated scf accuracy    <       0.00259470 Ry

     total magnetization       =    -0.00    -0.00     3.24 Bohr mag/cell
     absolute magnetization    =     3.64 Bohr mag/cell

     iteration #  6     ecut=    90.00 Ry     beta= 0.70
     Davidson diagonalization with overlap

---- Real-time Memory Report at c_bands before calling an iterative solver
           125 MiB given to the printing process from OS
             0 MiB allocation reported by mallinfo(arena+hblkhd)
         81448 MiB available memory on the node where the printing process lives
------------------
     ethr =  7.63E-06,  avg # of iterations =  2.2

     total cpu time spent up to now is       19.6 secs

     total energy              =    -541.97928237 Ry
     estimated scf accuracy    <       0.00020470 Ry

     total magnetization       =    -0.00    -0.00     3.25 Bohr mag/cell
     absolute magnetization    =     3.65 Bohr mag/cell

     iteration #  7     ecut=    90.00 Ry     beta= 0.70
     Davidson diagonalization with overlap

---- Real-time Memory Report at c_bands before calling an iterative solver
           129 MiB given to the printing process from OS
             0 MiB allocation reported by mallinfo(arena+hblkhd)
         81477 MiB available memory on the node where the printing process lives
------------------
     ethr =  6.02E-07,  avg # of iterations =  3.1

     total cpu time spent up to now is       22.4 secs

     total energy              =    -541.97939159 Ry
     estimated scf accuracy    <       0.00014901 Ry

     total magnetization       =     0.00    -0.00     3.25 Bohr mag/cell
     absolute magnetization    =     3.63 Bohr mag/cell

     iteration #  8     ecut=    90.00 Ry     beta= 0.70
     Davidson diagonalization with overlap

---- Real-time Memory Report at c_bands before calling an iterative solver
           132 MiB given to the printing process from OS
             0 MiB allocation reported by mallinfo(arena+hblkhd)
         81458 MiB available memory on the node where the printing process lives
------------------
     ethr =  4.38E-07,  avg # of iterations =  2.2

     total cpu time spent up to now is       24.6 secs

     total energy              =    -541.97940510 Ry
     estimated scf accuracy    <       0.00000575 Ry

     total magnetization       =    -0.00     0.00     3.25 Bohr mag/cell
     absolute magnetization    =     3.62 Bohr mag/cell

     iteration #  9     ecut=    90.00 Ry     beta= 0.70
     Davidson diagonalization with overlap

---- Real-time Memory Report at c_bands before calling an iterative solver
           136 MiB given to the printing process from OS
             0 MiB allocation reported by mallinfo(arena+hblkhd)
         81471 MiB available memory on the node where the printing process lives
------------------
     ethr =  1.69E-08,  avg # of iterations =  2.1

     total cpu time spent up to now is       27.2 secs

     total energy              =    -541.97940741 Ry
     estimated scf accuracy    <       0.00000034 Ry

     total magnetization       =     0.00    -0.00     3.25 Bohr mag/cell
     absolute magnetization    =     3.62 Bohr mag/cell

     iteration # 10     ecut=    90.00 Ry     beta= 0.70
     Davidson diagonalization with overlap

---- Real-time Memory Report at c_bands before calling an iterative solver
           140 MiB given to the printing process from OS
             0 MiB allocation reported by mallinfo(arena+hblkhd)
         81473 MiB available memory on the node where the printing process lives
------------------
     ethr =  1.01E-09,  avg # of iterations =  2.0

     total cpu time spent up to now is       29.4 secs

     total energy              =    -541.97940746 Ry
     estimated scf accuracy    <       0.00000004 Ry

     total magnetization       =    -0.00    -0.00     3.25 Bohr mag/cell
     absolute magnetization    =     3.62 Bohr mag/cell

     iteration # 11     ecut=    90.00 Ry     beta= 0.70
     Davidson diagonalization with overlap

---- Real-time Memory Report at c_bands before calling an iterative solver
           141 MiB given to the printing process from OS
             0 MiB allocation reported by mallinfo(arena+hblkhd)
         81452 MiB available memory on the node where the printing process lives
------------------
     ethr =  1.13E-10,  avg # of iterations =  2.2

     total cpu time spent up to now is       32.0 secs

     total energy              =    -541.97940748 Ry
     estimated scf accuracy    <          4.7E-09 Ry

     total magnetization       =    -0.00    -0.00     3.25 Bohr mag/cell
     absolute magnetization    =     3.62 Bohr mag/cell

     iteration # 12     ecut=    90.00 Ry     beta= 0.70
     Davidson diagonalization with overlap

---- Real-time Memory Report at c_bands before calling an iterative solver
           142 MiB given to the printing process from OS
             0 MiB allocation reported by mallinfo(arena+hblkhd)
         81455 MiB available memory on the node where the printing process lives
------------------
     ethr =  1.39E-11,  avg # of iterations =  2.0

 ==============================================================================
     atom number    1 relative position :   -0.0000   0.5774   0.4058
     charge :    15.621053  (integrated on a sphere of radius 0.411)
     magnetization :          0.000000   -0.000000    1.708627
     magnetization/charge:    0.000000   -0.000000    0.109380
     polar coord.: r, theta, phi [deg] :     1.708627    0.000000  360.000000

 ==============================================================================

 ==============================================================================
     atom number    2 relative position :    0.5000   0.2887   1.2174
     charge :    15.621053  (integrated on a sphere of radius 0.411)
     magnetization :         -0.000000    0.000000    1.708627
     magnetization/charge:   -0.000000    0.000000    0.109380
     polar coord.: r, theta, phi [deg] :     1.708627    0.000000  360.000000

 ==============================================================================

     total cpu time spent up to now is       34.3 secs

     End of self-consistent calculation

          k = 0.0000 0.0000 0.0000 (  2165 PWs)   bands (ev):

   -76.0753 -76.0237 -74.6358 -74.5826 -40.3376 -40.2727 -40.0810 -39.8339
   -38.7998 -38.7544 -37.7861 -37.6844 -37.5321 -37.2305 -36.9434 -36.8957
    10.8264  10.9079  14.6170  15.6003  17.0221  17.0514  17.1709  17.3173
    17.4721  17.6909  17.7734  18.7188  18.7557  18.7929  18.8894  18.9086
    19.1207  19.2637  19.4597  19.5957  19.6005  19.6720  20.7619  20.8484
    25.8326  26.8202

     occupation numbers 
     1.0000   1.0000   1.0000   1.0000   1.0000   1.0000   1.0000   1.0000
     1.0000   1.0000   1.0000   1.0000   1.0000   1.0000   1.0000   1.0000
     1.0000   1.0000   1.0000   1.0000   1.0000   1.0000   1.0000   1.0000
     1.0000   1.0000   1.0000   1.0000   1.0001   1.0001   1.0008   1.0011
     1.0203   1.0635   1.0378   0.7938   0.7819   0.5892   0.0000   0.0000
     0.0000   0.0000

          k = 0.0000 0.0000 0.0385 (  2159 PWs)   bands (ev):

   -76.0748 -76.0242 -74.6353 -74.5831 -40.3370 -40.2733 -40.0786 -39.8363
   -38.7994 -38.7548 -37.7851 -37.6855 -37.5292 -37.2335 -36.9430 -36.8961
    10.8653  10.9467  14.6102  15.5694  17.0127  17.0415  17.1561  17.3075
    17.4607  17.7190  17.7962  18.7112  18.7540  18.7802  18.8847  18.8949
    19.1095  19.2508  19.3566  19.4277  19.6248  19.6969  20.7613  20.8460
    26.0812  27.0243

     occupation numbers 
     1.0000   1.0000   1.0000   1.0000   1.0000   1.0000   1.0000   1.0000
     1.0000   1.0000   1.0000   1.0000   1.0000   1.0000   1.0000   1.0000
     1.0000   1.0000   1.0000   1.0000   1.0000   1.0000   1.0000   1.0000
     1.0000   1.0000   1.0000   1.0000   1.0001   1.0001   1.0007   1.0009
     1.0180   1.0591   1.0833   1.0635   0.7187   0.5205   0.0000   0.0000
     0.0000   0.0000

          k = 0.0000 0.0000 0.0770 (  2153 PWs)   bands (ev):

   -76.0734 -76.0257 -74.6338 -74.5846 -40.3351 -40.2751 -40.0716 -39.8432
   -38.7981 -38.7561 -37.7824 -37.6885 -37.5208 -37.2422 -36.9416 -36.8975
    10.9815  11.0625  14.5859  15.4695  16.9892  17.0129  17.1214  17.2793
    17.4282  17.7930  17.8594  18.6910  18.7432  18.7463  18.8617  18.8720
    18.9850  19.0774  19.0962  19.2149  19.7032  19.7663  20.7576  20.8375
    26.7540  27.5957

     occupation numbers 
     1.0000   1.0000   1.0000   1.0000   1.0000   1.0000   1.0000   1.0000
     1.0000   1.0000   1.0000   1.0000   1.0000   1.0000   1.0000   1.0000
     1.0000   1.0000   1.0000   1.0000   1.0000   1.0000   1.0000   1.0000
     1.0000   1.0000   1.0000   1.0000   1.0000   1.0001   1.0005   1.0006
     1.0037   1.0125   1.0156   1.0468   0.5036   0.3425   0.0000   0.0000
     0.0000   0.0000

          k = 0.0000 0.0000 0.1155 (  2165 PWs)   bands (ev):

   -76.0710 -76.0281 -74.6313 -74.5871 -40.3320 -40.2781 -40.0601 -39.8546
   -38.7960 -38.7582 -37.7780 -37.6935 -37.5072 -37.2564 -36.9394 -36.8997
    11.1734  11.2534  14.5307  15.2826  16.9616  16.9683  17.0835  17.2362
    17.3788  17.8943  17.9512  18.4212  18.6651  18.6843  18.7015  18.8102
    18.8241  18.8523  19.0286  19.1595  19.8140  19.8681  20.7467  20.8201
    27.7160  28.4467

     occupation numbers 
     1.0000   1.0000   1.0000   1.0000   1.0000   1.0000   1.0000   1.0000
     1.0000   1.0000   1.0000   1.0000   1.0000   1.0000   1.0000   1.0000
     1.0000   1.0000   1.0000   1.0000   1.0000   1.0000   1.0000   1.0000
     1.0000   1.0000   1.0000   1.0000   1.0000   1.0000   1.0000   1.0002
     1.0002   1.0004   1.0068   1.0297   0.2407   0.1508   0.0000   0.0000
     0.0000   0.0000

          k = 0.0000 0.0000 0.1540 (  2153 PWs)   bands (ev):

   -76.0678 -76.0313 -74.6280 -74.5904 -40.3279 -40.2820 -40.0446 -39.8698
[...]
     0.0000   0.0000

          k = 0.2500 0.5774-0.3080 (  2174 PWs)   bands (ev):

   -76.0136 -76.0136 -74.5722 -74.5722 -40.4423 -40.4338 -39.9653 -39.9548
   -38.9346 -38.9315 -37.8651 -37.8565 -37.3908 -37.3566 -37.0862 -37.0617
    15.5486  15.5506  16.2357  16.2407  16.7591  16.7697  16.8049  16.8488
    17.6643  17.6708  17.8310  17.8927  18.0567  18.0907  18.8801  18.8970
    19.6028  19.6991  20.8387  20.8568  24.2629  24.2730  24.9161  24.9239
    27.1701  27.1880

     occupation numbers 
     1.0000   1.0000   1.0000   1.0000   1.0000   1.0000   1.0000   1.0000
     1.0000   1.0000   1.0000   1.0000   1.0000   1.0000   1.0000   1.0000
     1.0000   1.0000   1.0000   1.0000   1.0000   1.0000   1.0000   1.0000
     1.0000   1.0000   1.0000   1.0000   1.0000   1.0000   1.0007   1.0009
     0.7761   0.5146   0.0000   0.0000   0.0000   0.0000   0.0000   0.0000
     0.0000   0.0000

          k = 0.3125 0.5413 0.0000 (  2151 PWs)   bands (ev):

   -76.0152 -76.0112 -74.5738 -74.5697 -40.4375 -40.4337 -39.9695 -39.9513
   -38.9392 -38.9350 -37.8636 -37.8567 -37.3772 -37.3538 -37.0922 -37.0861
    15.4316  15.7443  15.8483  16.1002  16.7666  16.8263  16.8490  16.9046
    17.0242  17.1198  17.7179  18.3747  18.5012  18.6236  18.8019  18.8163
    19.4211  20.5356  20.7547  20.8102  23.3771  24.2640  25.2623  25.4098
    25.9497  26.0490

     occupation numbers 
     1.0000   1.0000   1.0000   1.0000   1.0000   1.0000   1.0000   1.0000
     1.0000   1.0000   1.0000   1.0000   1.0000   1.0000   1.0000   1.0000
     1.0000   1.0000   1.0000   1.0000   1.0000   1.0000   1.0000   1.0000
     1.0000   1.0000   1.0000   1.0000   1.0000   1.0000   1.0002   1.0002
     1.0673   0.0000   0.0000   0.0000   0.0000   0.0000   0.0000   0.0000
     0.0000   0.0000

          k = 0.3125 0.5413 0.0385 (  2163 PWs)   bands (ev):

   -76.0151 -76.0112 -74.5738 -74.5697 -40.4376 -40.4338 -39.9693 -39.9514
   -38.9391 -38.9350 -37.8635 -37.8569 -37.3773 -37.3544 -37.0912 -37.0860
    15.4420  15.7486  15.8554  16.0966  16.7739  16.8358  16.8525  16.8955
    17.0424  17.1237  17.7144  18.3692  18.4846  18.6287  18.7682  18.8219
    19.4184  20.5431  20.7613  20.7707  23.4130  24.2998  25.2949  25.4159
    25.9814  26.0513

     occupation numbers 
     1.0000   1.0000   1.0000   1.0000   1.0000   1.0000   1.0000   1.0000
     1.0000   1.0000   1.0000   1.0000   1.0000   1.0000   1.0000   1.0000
     1.0000   1.0000   1.0000   1.0000   1.0000   1.0000   1.0000   1.0000
     1.0000   1.0000   1.0000   1.0000   1.0000   1.0000   1.0001   1.0002
     1.0687   0.0000   0.0000   0.0000   0.0000   0.0000   0.0000   0.0000
     0.0000   0.0000

          k = 0.3125 0.5413 0.0770 (  2165 PWs)   bands (ev):

   -76.0150 -76.0113 -74.5736 -74.5698 -40.4379 -40.4343 -39.9688 -39.9519
   -38.9387 -38.9350 -37.8634 -37.8573 -37.3780 -37.3559 -37.0893 -37.0850
    15.4719  15.7598  15.8766  16.0883  16.7928  16.8574  16.8681  16.8724
    17.0933  17.1359  17.7047  18.3519  18.4361  18.6414  18.6767  18.8372
    19.4112  20.5634  20.6578  20.7829  23.5157  24.3991  25.3909  25.4341
    26.0523  26.0810

     occupation numbers 
     1.0000   1.0000   1.0000   1.0000   1.0000   1.0000   1.0000   1.0000
     1.0000   1.0000   1.0000   1.0000   1.0000   1.0000   1.0000   1.0000
     1.0000   1.0000   1.0000   1.0000   1.0000   1.0000   1.0000   1.0000
     1.0000   1.0000   1.0000   1.0000   1.0000   1.0000   1.0000   1.0003
     1.0722   0.0000   0.0000   0.0000   0.0000   0.0000   0.0000   0.0000
     0.0000   0.0000

          k = 0.3125 0.5413 0.1155 (  2166 PWs)   bands (ev):

   -76.0148 -76.0115 -74.5734 -74.5700 -40.4388 -40.4347 -39.9681 -39.9526
   -38.9382 -38.9351 -37.8635 -37.8576 -37.3796 -37.3572 -37.0885 -37.0815
    15.5177  15.7743  15.9111  16.0812  16.8147  16.8322  16.8838  16.9107
    17.1543  17.1734  17.6910  18.3190  18.3640  18.5278  18.6760  18.8586
    19.4030  20.4849  20.6044  20.8106  23.6725  24.5429  25.4407  25.5660
    26.0509  26.2442

     occupation numbers 
     1.0000   1.0000   1.0000   1.0000   1.0000   1.0000   1.0000   1.0000
     1.0000   1.0000   1.0000   1.0000   1.0000   1.0000   1.0000   1.0000
     1.0000   1.0000   1.0000   1.0000   1.0000   1.0000   1.0000   1.0000
     1.0000   1.0000   1.0000   1.0000   1.0000   1.0000   1.0000   1.0005
     1.0755   0.0000   0.0000   0.0000   0.0000   0.0000   0.0000   0.0000
     0.0000   0.0000

          k = 0.3125 0.5413 0.1540 (  2166 PWs)   bands (ev):

   -76.0146 -76.0118 -74.5732 -74.5703 -40.4400 -40.4349 -39.9673 -39.9533
   -38.9376 -38.9350 -37.8639 -37.8577 -37.3824 -37.3577 -37.0887 -37.0765
    15.5732  15.7864  15.9573  16.0815  16.7869  16.8381  16.9141  16.9604
    17.1907  17.2659  17.6773  18.2500  18.2970  18.3593  18.7126  18.8806
    19.3992  20.2913  20.6467  20.8381  23.8691  24.7125  25.4376  25.8009
    26.0278  26.4770

     occupation numbers 
     1.0000   1.0000   1.0000   1.0000   1.0000   1.0000   1.0000   1.0000
     1.0000   1.0000   1.0000   1.0000   1.0000   1.0000   1.0000   1.0000
     1.0000   1.0000   1.0000   1.0000   1.0000   1.0000   1.0000   1.0000
     1.0000   1.0000   1.0000   1.0000   1.0000   1.0000   1.0000   1.0007
     1.0768   0.0003   0.0000   0.0000   0.0000   0.0000   0.0000   0.0000
     0.0000   0.0000

          k = 0.3125 0.5413 0.1925 (  2166 PWs)   bands (ev):

   -76.0143 -76.0121 -74.5729 -74.5706 -40.4414 -40.4349 -39.9666 -39.9539
   -38.9373 -38.9347 -37.8646 -37.8576 -37.3859 -37.3574 -37.0890 -37.0715
    15.6308  15.7917  16.0110  16.0923  16.7494  16.8470  16.9491  17.0045
    17.2445  17.3651  17.6696  18.1525  18.1846  18.2404  18.7553  18.8973
    19.4071  20.0896  20.6959  20.8582  24.0944  24.8969  25.3911  25.9667
    26.1018  26.7731

     occupation numbers 
     1.0000   1.0000   1.0000   1.0000   1.0000   1.0000   1.0000   1.0000
     1.0000   1.0000   1.0000   1.0000   1.0000   1.0000   1.0000   1.0000
     1.0000   1.0000   1.0000   1.0000   1.0000   1.0000   1.0000   1.0000
     1.0000   1.0000   1.0000   1.0000   1.0000   1.0000   1.0001   1.0009
     1.0739   0.0103   0.0000   0.0000   0.0000   0.0000   0.0000   0.0000
     0.0000   0.0000

          k = 0.3125 0.5413 0.2310 (  2175 PWs)   bands (ev):

   -76.0139 -76.0124 -74.5725 -74.5709 -40.4426 -40.4349 -39.9661 -39.9543
   -38.9372 -38.9343 -37.8653 -37.8572 -37.3891 -37.3567 -37.0894 -37.0673
    15.6829  15.7885  16.0634  16.1107  16.7249  16.8412  16.9842  17.0324
    17.3182  17.4506  17.6755  18.0193  18.0695  18.1755  18.7995  18.9037
    19.4348  19.9000  20.7462  20.8656  24.3405  25.0920  25.2787  25.8556
    26.4582  27.1222

     occupation numbers 
     1.0000   1.0000   1.0000   1.0000   1.0000   1.0000   1.0000   1.0000
     1.0000   1.0000   1.0000   1.0000   1.0000   1.0000   1.0000   1.0000
     1.0000   1.0000   1.0000   1.0000   1.0000   1.0000   1.0000   1.0000
     1.0000   1.0000   1.0000   1.0000   1.0000   1.0000   1.0002   1.0010
     1.0588   0.1107   0.0000   0.0000   0.0000   0.0000   0.0000   0.0000
     0.0000   0.0000

          k = 0.3125 0.5413 0.2695 (  2174 PWs)   bands (ev):

   -76.0136 -76.0128 -74.5721 -74.5713 -40.4435 -40.4349 -39.9658 -39.9545
   -38.9372 -38.9340 -37.8658 -37.8570 -37.3914 -37.3560 -37.0896 -37.0646
    15.7247  15.7770  16.1015  16.1290  16.7180  16.8239  17.0140  17.0422
    17.4007  17.4921  17.7026  17.8896  18.0201  18.1085  18.8396  18.8975
    19.4879  19.7394  20.7919  20.8579  24.5998  25.0951  25.2958  25.6950
    26.8564  27.5093

     occupation numbers 
     1.0000   1.0000   1.0000   1.0000   1.0000   1.0000   1.0000   1.0000
     1.0000   1.0000   1.0000   1.0000   1.0000   1.0000   1.0000   1.0000
     1.0000   1.0000   1.0000   1.0000   1.0000   1.0000   1.0000   1.0000
     1.0000   1.0000   1.0000   1.0000   1.0000   1.0000   1.0003   1.0009
     1.0052   0.4083   0.0000   0.0000   0.0000   0.0000   0.0000   0.0000
     0.0000   0.0000

          k = 0.3125 0.5413-0.3080 (  2182 PWs)   bands (ev):

   -76.0132 -76.0132 -74.5717 -74.5717 -40.4438 -40.4348 -39.9657 -39.9546
   -38.9372 -38.9339 -37.8660 -37.8569 -37.3922 -37.3558 -37.0897 -37.0636
    15.7506  15.7614  16.1152  16.1370  16.7199  16.8128  17.0308  17.0388
    17.4671  17.4716  17.7334  17.8230  18.0171  18.0688  18.8639  18.8852
    19.5406  19.6490  20.8202  20.8429  24.8494  24.8686  25.5005  25.5027
    27.2624  27.2867

     occupation numbers 
     1.0000   1.0000   1.0000   1.0000   1.0000   1.0000   1.0000   1.0000
     1.0000   1.0000   1.0000   1.0000   1.0000   1.0000   1.0000   1.0000
     1.0000   1.0000   1.0000   1.0000   1.0000   1.0000   1.0000   1.0000
     1.0000   1.0000   1.0000   1.0000   1.0000   1.0000   1.0005   1.0007
     0.9179   0.6530   0.0000   0.0000   0.0000   0.0000   0.0000   0.0000
     0.0000   0.0000

     the Fermi energy is    19.7424 ev

!    total energy              =    -541.97940748 Ry
     estimated scf accuracy    <          5.6E-11 Ry
     smearing contrib. (-TS)   =       0.00093392 Ry
     internal energy E=F+TS    =    -541.98034140 Ry

     The total energy is F=E-TS. E is the sum of the following terms:
     one-electron contribution =    -219.70921031 Ry
     hartree contribution      =     129.18358498 Ry
     xc contribution           =     -55.15683476 Ry
     ewald contribution        =    -396.29788131 Ry

     total magnetization       =    -0.00     0.00     3.25 Bohr mag/cell
     absolute magnetization    =     3.62 Bohr mag/cell

     convergence has been achieved in  12 iterations

     Writing all to output data dir ./Co.save/
 
     init_run     :      0.77s CPU      0.80s WALL (       1 calls)
     electrons    :     33.17s CPU     33.37s WALL (       1 calls)

     Called by init_run:
     wfcinit      :      0.65s CPU      0.67s WALL (       1 calls)
     wfcinit:wfcr :      0.58s CPU      0.59s WALL (       5 calls)
     potinit      :      0.09s CPU      0.10s WALL (       1 calls)
     hinit0       :      0.02s CPU      0.02s WALL (       1 calls)

     Called by electrons:
     c_bands      :     28.35s CPU     28.48s WALL (      12 calls)
     sum_band     :      3.44s CPU      3.45s WALL (      12 calls)
     v_of_rho     :      0.86s CPU      0.87s WALL (      13 calls)
     v_h          :      0.01s CPU      0.01s WALL (      13 calls)
     v_xc         :      0.85s CPU      0.86s WALL (      13 calls)
     mix_rho      :      0.16s CPU      0.19s WALL (      12 calls)

     Called by c_bands:
     init_us_2    :      0.12s CPU      0.12s WALL (     125 calls)
     init_us_2:cp :      0.12s CPU      0.12s WALL (     125 calls)
     cegterg      :     21.90s CPU     22.00s WALL (      60 calls)

     Called by sum_band:
     sum_band:wei :      0.05s CPU      0.05s WALL (      12 calls)
     sum_band:loo :      2.71s CPU      2.72s WALL (      12 calls)
     sum_band:buf :      0.04s CPU      0.04s WALL (      60 calls)
     sum_band:ini :      0.05s CPU      0.05s WALL (      60 calls)

     Called by *egterg:
     cdiaghg      :      0.52s CPU      0.52s WALL (     229 calls)
     cegterg:over :      1.24s CPU      1.25s WALL (     169 calls)
     cegterg:upda :      0.77s CPU      0.77s WALL (     169 calls)
     cegterg:last :      1.33s CPU      1.35s WALL (     153 calls)
     h_psi        :     18.07s CPU     18.15s WALL (     234 calls)
     g_psi        :      0.04s CPU      0.04s WALL (     169 calls)

     Called by h_psi:
     h_psi:calbec :      0.80s CPU      0.81s WALL (     234 calls)
     vloc_psi     :     16.27s CPU     16.34s WALL (     234 calls)
     add_vuspsi   :      0.93s CPU      0.94s WALL (     234 calls)

     General routines
     calbec       :      0.80s CPU      0.81s WALL (     234 calls)
     fft          :      0.24s CPU      0.25s WALL (     318 calls)
     ffts         :      0.04s CPU      0.04s WALL (      48 calls)
     fftw         :     15.79s CPU     15.85s WALL (   35132 calls)
 
     Parallel routines
 
     PWSCF        :     34.11s CPU     34.46s WALL

 
   This run was terminated on:  14: 0:24  20May2023            

=------------------------------------------------------------------------------=
   JOB DONE.
=------------------------------------------------------------------------------=
Warning: ieee_invalid is signaling
Warning: ieee_underflow is signaling
Warning: ieee_inexact is signaling
FORTRAN STOP
Warning: ieee_invalid is signaling
Warning: ieee_underflow is signaling
Warning: ieee_inexact is signaling
FORTRAN STOP
Warning: ieee_invalid is signaling
Warning: ieee_underflow is signaling
Warning: ieee_inexact is signaling
FORTRAN STOP
Warning: ieee_invalid is signaling
Warning: ieee_underflow is signaling
Warning: ieee_inexact is signaling
FORTRAN STOP
Warning: ieee_invalid is signaling
Warning: ieee_underflow is signaling
Warning: ieee_inexact is signaling
FORTRAN STOP
Warning: ieee_invalid is signaling
Warning: ieee_underflow is signaling
Warning: ieee_inexact is signaling
FORTRAN STOP
Warning: ieee_invalid is signaling
Warning: ieee_underflow is signaling
Warning: ieee_inexact is signaling
FORTRAN STOP
Warning: ieee_invalid is signaling
Warning: ieee_underflow is signaling
Warning: ieee_inexact is signaling
FORTRAN STOP
Warning: ieee_invalid is signaling
Warning: ieee_underflow is signaling
Warning: ieee_inexact is signaling
FORTRAN STOP
Warning: ieee_invalid is signaling
Warning: ieee_underflow is signaling
Warning: ieee_inexact is signaling
FORTRAN STOP
Warning: ieee_invalid is signaling
Warning: ieee_underflow is signaling
Warning: ieee_inexact is signaling
FORTRAN STOP
Warning: ieee_invalid is signaling
Warning: ieee_underflow is signaling
Warning: ieee_inexact is signaling
FORTRAN STOP
Warning: ieee_invalid is signaling
Warning: ieee_underflow is signaling
Warning: ieee_inexact is signaling
FORTRAN STOP
Warning: ieee_invalid is signaling
Warning: ieee_underflow is signaling
Warning: ieee_inexact is signaling
FORTRAN STOP
Warning: ieee_invalid is signaling
Warning: ieee_underflow is signaling
Warning: ieee_inexact is signaling
FORTRAN STOP
Warning: ieee_invalid is signaling
Warning: ieee_underflow is signaling
Warning: ieee_inexact is signaling
FORTRAN STOP
Warning: ieee_invalid is signaling
Warning: ieee_underflow is signaling
Warning: ieee_inexact is signaling
FORTRAN STOP
Warning: ieee_invalid is signaling
Warning: ieee_underflow is signaling
Warning: ieee_inexact is signaling
FORTRAN STOP
Warning: ieee_invalid is signaling
Warning: ieee_underflow is signaling
Warning: ieee_inexact is signaling
FORTRAN STOP
Warning: ieee_invalid is signaling
Warning: ieee_underflow is signaling
Warning: ieee_inexact is signaling
FORTRAN STOP
Warning: ieee_invalid is signaling
Warning: ieee_underflow is signaling
Warning: ieee_inexact is signaling
FORTRAN STOP
Warning: ieee_invalid is signaling
Warning: ieee_underflow is signaling
Warning: ieee_inexact is signaling
FORTRAN STOP
Warning: ieee_invalid is signaling
Warning: ieee_underflow is signaling
Warning: ieee_inexact is signaling
FORTRAN STOP
Warning: ieee_invalid is signaling
Warning: ieee_underflow is signaling
Warning: ieee_inexact is signaling
FORTRAN STOP
Warning: ieee_invalid is signaling
Warning: ieee_underflow is signaling
Warning: ieee_inexact is signaling
FORTRAN STOP
Warning: ieee_invalid is signaling
Warning: ieee_underflow is signaling
Warning: ieee_inexact is signaling
FORTRAN STOP
Warning: ieee_invalid is signaling
Warning: ieee_underflow is signaling
Warning: ieee_inexact is signaling
FORTRAN STOP
Warning: ieee_invalid is signaling
Warning: ieee_underflow is signaling
Warning: ieee_inexact is signaling
FORTRAN STOP
Warning: ieee_invalid is signaling
Warning: ieee_underflow is signaling
Warning: ieee_inexact is signaling
FORTRAN STOP
Warning: ieee_invalid is signaling
Warning: ieee_underflow is signaling
Warning: ieee_inexact is signaling
FORTRAN STOP
Warning: ieee_invalid is signaling
Warning: ieee_underflow is signaling
Warning: ieee_inexact is signaling
FORTRAN STOP
Warning: ieee_invalid is signaling
Warning: ieee_underflow is signaling
Warning: ieee_inexact is signaling
FORTRAN STOP
Warning: ieee_invalid is signaling
Warning: ieee_underflow is signaling
Warning: ieee_inexact is signaling
FORTRAN STOP
Warning: ieee_invalid is signaling
Warning: ieee_underflow is signaling
Warning: ieee_inexact is signaling
FORTRAN STOP
Warning: ieee_invalid is signaling
Warning: ieee_underflow is signaling
Warning: ieee_inexact is signaling
FORTRAN STOP
Warning: ieee_invalid is signaling
Warning: ieee_underflow is signaling
Warning: ieee_inexact is signaling
FORTRAN STOP
Warning: ieee_invalid is signaling
Warning: ieee_underflow is signaling
Warning: ieee_inexact is signaling
FORTRAN STOP
Warning: ieee_invalid is signaling
Warning: ieee_underflow is signaling
Warning: ieee_inexact is signaling
FORTRAN STOP
Warning: ieee_invalid is signaling
Warning: ieee_underflow is signaling
Warning: ieee_inexact is signaling
FORTRAN STOP
Warning: ieee_invalid is signaling
Warning: ieee_underflow is signaling
Warning: ieee_inexact is signaling
FORTRAN STOP
Warning: ieee_invalid is signaling
Warning: ieee_underflow is signaling
Warning: ieee_inexact is signaling
FORTRAN STOP
Warning: ieee_invalid is signaling
Warning: ieee_underflow is signaling
Warning: ieee_inexact is signaling
FORTRAN STOP
Warning: ieee_invalid is signaling
Warning: ieee_underflow is signaling
Warning: ieee_inexact is signaling
FORTRAN STOP
Warning: ieee_invalid is signaling
Warning: ieee_underflow is signaling
Warning: ieee_inexact is signaling
FORTRAN STOP
Warning: ieee_invalid is signaling
Warning: ieee_underflow is signaling
Warning: ieee_inexact is signaling
FORTRAN STOP
Warning: ieee_invalid is signaling
Warning: ieee_underflow is signaling
Warning: ieee_inexact is signaling
FORTRAN STOP
Warning: ieee_invalid is signaling
Warning: ieee_underflow is signaling
Warning: ieee_inexact is signaling
FORTRAN STOP
Warning: ieee_invalid is signaling
Warning: ieee_underflow is signaling
Warning: ieee_inexact is signaling
FORTRAN STOP
Warning: ieee_invalid is signaling
Warning: ieee_underflow is signaling
Warning: ieee_inexact is signaling
FORTRAN STOP
Warning: ieee_invalid is signaling
Warning: ieee_underflow is signaling
Warning: ieee_inexact is signaling
FORTRAN STOP
Warning: ieee_invalid is signaling
Warning: ieee_underflow is signaling
Warning: ieee_inexact is signaling
FORTRAN STOP
Warning: ieee_invalid is signaling
Warning: ieee_underflow is signaling
Warning: ieee_inexact is signaling
FORTRAN STOP
Warning: ieee_invalid is signaling
Warning: ieee_underflow is signaling
Warning: ieee_inexact is signaling
FORTRAN STOP
Warning: ieee_invalid is signaling
Warning: ieee_underflow is signaling
Warning: ieee_inexact is signaling
FORTRAN STOP
Warning: ieee_invalid is signaling
Warning: ieee_underflow is signaling
Warning: ieee_inexact is signaling
FORTRAN STOP
Warning: ieee_invalid is signaling
Warning: ieee_underflow is signaling
Warning: ieee_inexact is signaling
FORTRAN STOP
Warning: ieee_invalid is signaling
Warning: ieee_underflow is signaling
Warning: ieee_inexact is signaling
FORTRAN STOP
Warning: ieee_invalid is signaling
Warning: ieee_underflow is signaling
Warning: ieee_inexact is signaling
FORTRAN STOP
Warning: ieee_invalid is signaling
Warning: ieee_underflow is signaling
Warning: ieee_inexact is signaling
FORTRAN STOP
Warning: ieee_invalid is signaling
Warning: ieee_underflow is signaling
Warning: ieee_inexact is signaling
FORTRAN STOP
Warning: ieee_invalid is signaling
Warning: ieee_underflow is signaling
Warning: ieee_inexact is signaling
FORTRAN STOP
Warning: ieee_invalid is signaling
Warning: ieee_underflow is signaling
Warning: ieee_inexact is signaling
FORTRAN STOP
Warning: ieee_invalid is signaling
Warning: ieee_underflow is signaling
Warning: ieee_inexact is signaling
FORTRAN STOP
Warning: ieee_invalid is signaling
Warning: ieee_underflow is signaling
Warning: ieee_inexact is signaling
FORTRAN STOP
